 Entering Gaussian System, Link 0=g09
 Initial command:
 /soft/gaussian/09-e.01/g09/l1.exe "/scratch/kmoore/Gau-78855.inp" -scrdir="/scratch/kmoore"
 Entering Link 1 = /soft/gaussian/09-e.01/g09/l1.exe PID=     78856.
  
 Copyright (c) 1988,1990,1992,1993,1995,1998,2003,2009,2015,
            Gaussian, Inc.  All Rights Reserved.
  
 This is part of the Gaussian(R) 09 program.  It is based on
 the Gaussian(R) 03 system (copyright 2003, Gaussian, Inc.),
 the Gaussian(R) 98 system (copyright 1998, Gaussian, Inc.),
 the Gaussian(R) 94 system (copyright 1995, Gaussian, Inc.),
 the Gaussian 92(TM) system (copyright 1992, Gaussian, Inc.),
 the Gaussian 90(TM) system (copyright 1990, Gaussian, Inc.),
 the Gaussian 88(TM) system (copyright 1988, Gaussian, Inc.),
 the Gaussian 86(TM) system (copyright 1986, Carnegie Mellon
 University), and the Gaussian 82(TM) system (copyright 1983,
 Carnegie Mellon University). Gaussian is a federally registered
 trademark of Gaussian, Inc.
  
 This software contains proprietary and confidential information,
 including trade secrets, belonging to Gaussian, Inc.
  
 This software is provided under written license and may be
 used, copied, transmitted, or stored only in accord with that
 written license.
  
 The following legend is applicable only to US Government
 contracts under FAR:
  
                    RESTRICTED RIGHTS LEGEND
  
 Use, reproduction and disclosure by the US Government is
 subject to restrictions as set forth in subparagraphs (a)
 and (c) of the Commercial Computer Software - Restricted
 Rights clause in FAR 52.227-19.
  
 Gaussian, Inc.
 340 Quinnipiac St., Bldg. 40, Wallingford CT 06492
  
  
 ---------------------------------------------------------------
 Warning -- This program may not be used in any manner that
 competes with the business of Gaussian, Inc. or will provide
 assistance to any competitor of Gaussian, Inc.  The licensee
 of this program is prohibited from giving any competitor of
 Gaussian, Inc. access to this program.  By using this program,
 the user acknowledges that Gaussian, Inc. is engaged in the
 business of creating and licensing software in the field of
 computational chemistry and represents and warrants to the
 licensee that it is not a competitor of Gaussian, Inc. and that
 it will not use this program in any manner prohibited above.
 ---------------------------------------------------------------
  

 Cite this work as:
 Gaussian 09, Revision E.01,
 M. J. Frisch, G. W. Trucks, H. B. Schlegel, G. E. Scuseria, 
 M. A. Robb, J. R. Cheeseman, G. Scalmani, V. Barone, B. Mennucci, 
 G. A. Petersson, H. Nakatsuji, M. Caricato, X. Li, H. P. Hratchian, 
 A. F. Izmaylov, J. Bloino, G. Zheng, J. L. Sonnenberg, M. Hada, 
 M. Ehara, K. Toyota, R. Fukuda, J. Hasegawa, M. Ishida, T. Nakajima, 
 Y. Honda, O. Kitao, H. Nakai, T. Vreven, J. A. Montgomery, Jr., 
 J. E. Peralta, F. Ogliaro, M. Bearpark, J. J. Heyd, E. Brothers, 
 K. N. Kudin, V. N. Staroverov, T. Keith, R. Kobayashi, J. Normand, 
 K. Raghavachari, A. Rendell, J. C. Burant, S. S. Iyengar, J. Tomasi, 
 M. Cossi, N. Rega, J. M. Millam, M. Klene, J. E. Knox, J. B. Cross, 
 V. Bakken, C. Adamo, J. Jaramillo, R. Gomperts, R. E. Stratmann, 
 O. Yazyev, A. J. Austin, R. Cammi, C. Pomelli, J. W. Ochterski, 
 R. L. Martin, K. Morokuma, V. G. Zakrzewski, G. A. Voth, 
 P. Salvador, J. J. Dannenberg, S. Dapprich, A. D. Daniels, 
 O. Farkas, J. B. Foresman, J. V. Ortiz, J. Cioslowski, 
 and D. J. Fox, Gaussian, Inc., Wallingford CT, 2013.
 
 ******************************************
 Gaussian 09:  ES64L-G09RevE.01 30-Nov-2015
                30-Jan-2019 
 ******************************************
 %mem=30gb
 %nproc=8
 Will use up to    8 processors via shared memory.
 -------------------------------------------------
 #B3LYP/cc-pVDZ Integral(Grid=SuperFineGrid) Force
 -------------------------------------------------
 1/10=7,30=1,38=1/1,3;
 2/12=2,17=6,18=5,40=1/2;
 3/5=16,11=2,16=1,25=1,30=1,71=1,74=-5,75=-7/1,2,3;
 4//1;
 5/5=2,38=5/2;
 6/7=2,8=2,9=2,10=2,28=1/1;
 7/29=1/1,2,3,16;
 1/10=7,30=1/3;
 99//99;
 ------------
 Optimization
 ------------
 Symbolic Z-matrix:
 Charge =  0 Multiplicity = 1
 H
 O                    1    r1
 C                    2    r2       1    a1
 H                    3    r3       2    a2       1    d1       0
 H                    3    r4       4    a3       2    d2       0
 H                    3    r4       4    a3       2    d3       0
       Variables:
  r1                    0.992                    
  r2                    1.398                    
  r3                    1.109                    
  r4                    1.112                    
  a1                  106.                       
  a2                  108.9                      
  a3                  108.2                      
  d2                  119.9                      
  d3                 -119.9                      
  d1                 -180.                       
 

 GradGradGradGradGradGradGradGradGradGradGradGradGradGradGradGradGradGrad
 Berny optimization.
 Initialization pass.
                       ----------------------------
                       !    Initial Parameters    !
                       ! (Angstroms and Degrees)  !
 ----------------------                            ----------------------
 !      Name          Value   Derivative information (Atomic Units)     !
 ------------------------------------------------------------------------
 !       r1          0.992    estimate D2E/DX2                          !
 !       r2          1.398    estimate D2E/DX2                          !
 !       r3          1.109    estimate D2E/DX2                          !
 !       r4          1.112    estimate D2E/DX2                          !
 !       a1        106.0      estimate D2E/DX2                          !
 !       a2        108.9      estimate D2E/DX2                          !
 !       a3        108.2      estimate D2E/DX2                          !
 !       d2        119.9      estimate D2E/DX2                          !
 !       d3       -119.9      estimate D2E/DX2                          !
 !       d1       -180.0      estimate D2E/DX2                          !
 ------------------------------------------------------------------------
 Trust Radius=3.00D-01 FncErr=1.00D-07 GrdErr=1.00D-07
 Number of steps in this run=      2 maximum allowed number of steps=      2.
 GradGradGradGradGradGradGradGradGradGradGradGradGradGradGradGradGradGrad

                          Input orientation:                          
 ---------------------------------------------------------------------
 Center     Atomic      Atomic             Coordinates (Angstroms)
 Number     Number       Type             X           Y           Z
 ---------------------------------------------------------------------
      1          1           0        0.000000    0.000000    0.000000
      2          8           0        0.000000    0.000000    0.992000
      3          6           0        1.343844    0.000000    1.377341
      4          1           0        1.399951    0.000000    2.484921
      5          1           0        1.852185    0.915763    1.003828
      6          1           0        1.852185   -0.915763    1.003828
 ---------------------------------------------------------------------
                    Distance matrix (angstroms):
                    1          2          3          4          5
     1  H    0.000000
     2  O    0.992000   0.000000
     3  C    1.924314   1.398000   0.000000
     4  H    2.852139   2.046626   1.109000   0.000000
     5  H    2.297146   2.066240   1.112000   1.799103   0.000000
     6  H    2.297146   2.066240   1.112000   1.799103   1.831526
                    6
     6  H    0.000000
 Stoichiometry    CH4O
 Framework group  CS[SG(CH2O),X(H2)]
 Deg. of freedom     8
 Full point group                 CS      NOp   2
 Largest Abelian subgroup         CS      NOp   2
 Largest concise Abelian subgroup CS      NOp   2
                         Standard orientation:                         
 ---------------------------------------------------------------------
 Center     Atomic      Atomic             Coordinates (Angstroms)
 Number     Number       Type             X           Y           Z
 ---------------------------------------------------------------------
      1          1           0       -0.903422   -1.020053    0.000000
      2          8           0        0.050149   -0.746621    0.000000
      3          6           0        0.050149    0.651379    0.000000
      4          1           0        1.099358    1.010603    0.000000
      5          1           0       -0.449012    1.037073    0.915763
      6          1           0       -0.449012    1.037073   -0.915763
 ---------------------------------------------------------------------
 Rotational constants (GHZ):    122.2090705     25.4333839     24.5028398
 Standard basis: CC-pVDZ (5D, 7F)
 There are    35 symmetry adapted cartesian basis functions of A'  symmetry.
 There are    15 symmetry adapted cartesian basis functions of A"  symmetry.
 There are    33 symmetry adapted basis functions of A'  symmetry.
 There are    15 symmetry adapted basis functions of A"  symmetry.
    48 basis functions,    94 primitive gaussians,    50 cartesian basis functions
     9 alpha electrons        9 beta electrons
       nuclear repulsion energy        40.3498912158 Hartrees.
 NAtoms=    6 NActive=    6 NUniq=    5 SFac= 1.44D+00 NAtFMM=   60 NAOKFM=F Big=F
 Integral buffers will be    131072 words long.
 Raffenetti 2 integral format.
 Two-electron integral symmetry is turned on.
 One-electron integrals computed using PRISM.
 NBasis=    48 RedAO= T EigKep=  2.23D-02  NBF=    33    15
 NBsUse=    48 1.00D-06 EigRej= -1.00D+00 NBFU=    33    15
 ExpMin= 1.22D-01 ExpMax= 1.17D+04 ExpMxC= 4.01D+02 IAcc=3 IRadAn=         7 AccDes= 0.00D+00
 Harris functional with IExCor=  402 and IRadAn=       7 diagonalized for initial guess.
 HarFok:  IExCor=  402 AccDes= 0.00D+00 IRadAn=         7 IDoV= 1 UseB2=F ITyADJ=14
 ICtDFT=  3500011 ScaDFX=  1.000000  1.000000  1.000000  1.000000
 FoFCou: FMM=F IPFlag=           0 FMFlag=      100000 FMFlg1=           0
         NFxFlg=           0 DoJE=T BraDBF=F KetDBF=T FulRan=T
         wScrn=  0.000000 ICntrl=     500 IOpCl=  0 I1Cent=   200000004 NGrid=           0
         NMat0=    1 NMatS0=      1 NMatT0=    0 NMatD0=    1 NMtDS0=    0 NMtDT0=    0
 Petite list used in FoFCou.
 Initial guess orbital symmetries:
       Occupied  (A') (A') (A') (A') (A') (A") (A') (A') (A")
       Virtual   (A') (A') (A') (A") (A') (A') (A") (A') (A') (A")
                 (A') (A') (A') (A") (A') (A') (A") (A') (A") (A")
                 (A') (A") (A') (A') (A") (A') (A') (A') (A') (A")
                 (A') (A") (A') (A') (A") (A") (A') (A') (A')
 The electronic state of the initial guess is 1-A'.
 Keep R1 ints in memory in symmetry-blocked form, NReq=1597446.
 Requested convergence on RMS density matrix=1.00D-08 within 128 cycles.
 Requested convergence on MAX density matrix=1.00D-06.
 Requested convergence on             energy=1.00D-06.
 No special actions if energy rises.
 Integral accuracy reduced to 1.0D-05 until final iterations.
 Initial convergence to 1.0D-05 achieved.  Increase integral accuracy.
 SCF Done:  E(RB3LYP) =  -115.721091619     A.U. after   11 cycles
            NFock= 11  Conv=0.38D-08     -V/T= 2.0067

 **********************************************************************

            Population analysis using the SCF density.

 **********************************************************************

 Orbital symmetries:
       Occupied  (A') (A') (A') (A') (A') (A") (A') (A') (A")
       Virtual   (A') (A') (A") (A') (A') (A') (A") (A') (A') (A")
                 (A') (A') (A') (A") (A') (A') (A") (A') (A") (A')
                 (A") (A") (A') (A') (A") (A') (A') (A') (A') (A")
                 (A') (A") (A') (A') (A") (A") (A') (A') (A')
 The electronic state is 1-A'.
 Alpha  occ. eigenvalues --  -19.13007 -10.22684  -1.01270  -0.66929  -0.49711
 Alpha  occ. eigenvalues --   -0.43693  -0.41989  -0.32469  -0.26124
 Alpha virt. eigenvalues --    0.04952   0.09272   0.13490   0.13606   0.19843
 Alpha virt. eigenvalues --    0.44703   0.46451   0.49283   0.55933   0.62469
 Alpha virt. eigenvalues --    0.64157   0.64574   0.87197   0.89466   0.94986
 Alpha virt. eigenvalues --    1.00335   1.06572   1.19360   1.33822   1.39929
 Alpha virt. eigenvalues --    1.39929   1.57718   1.61232   1.64348   1.66735
 Alpha virt. eigenvalues --    1.75093   1.86637   1.96694   2.05547   2.06942
 Alpha virt. eigenvalues --    2.13436   2.37515   2.38997   2.40381   2.92576
 Alpha virt. eigenvalues --    3.01410   3.07475   3.18961   3.64241
          Condensed to atoms (all electrons):
               1          2          3          4          5          6
     1  H    0.568119   0.338797  -0.048287   0.009619  -0.007770  -0.007770
     2  O    0.338797   7.671456   0.369502  -0.024173  -0.036016  -0.036016
     3  C   -0.048287   0.369502   4.413583   0.395548   0.389117   0.389117
     4  H    0.009619  -0.024173   0.395548   0.658885  -0.036050  -0.036050
     5  H   -0.007770  -0.036016   0.389117  -0.036050   0.729247  -0.044837
     6  H   -0.007770  -0.036016   0.389117  -0.036050  -0.044837   0.729247
 Mulliken charges:
               1
     1  H    0.147292
     2  O   -0.283551
     3  C    0.091420
     4  H    0.032222
     5  H    0.006309
     6  H    0.006309
 Sum of Mulliken charges =   0.00000
 Mulliken charges with hydrogens summed into heavy atoms:
               1
     2  O   -0.136259
     3  C    0.136259
 Electronic spatial extent (au):  <R**2>=             83.3451
 Charge=              0.0000 electrons
 Dipole moment (field-independent basis, Debye):
    X=             -1.3469    Y=              0.7579    Z=              0.0000  Tot=              1.5455
 Quadrupole moment (field-independent basis, Debye-Ang):
   XX=            -11.5662   YY=            -13.2683   ZZ=            -13.4969
   XY=              2.0318   XZ=              0.0000   YZ=              0.0000
 Traceless Quadrupole moment (field-independent basis, Debye-Ang):
   XX=              1.2109   YY=             -0.4911   ZZ=             -0.7198
   XY=              2.0318   XZ=              0.0000   YZ=              0.0000
 Octapole moment (field-independent basis, Debye-Ang**2):
  XXX=             -1.1721  YYY=             -4.3285  ZZZ=             -0.0000  XYY=             -1.8350
  XXY=             -2.4625  XXZ=              0.0000  XZZ=             -0.4739  YZZ=             -0.8414
  YYZ=              0.0000  XYZ=              0.0000
 Hexadecapole moment (field-independent basis, Debye-Ang**3):
 XXXX=            -19.3143 YYYY=            -60.0245 ZZZZ=            -19.7218 XXXY=              0.7576
 XXXZ=              0.0000 YYYX=              0.7503 YYYZ=              0.0000 ZZZX=              0.0000
 ZZZY=              0.0000 XXYY=            -12.0220 XXZZ=             -6.9043 YYZZ=            -13.6553
 XXYZ=              0.0000 YYXZ=              0.0000 ZZXY=             -0.8306
 N-N= 4.034989121584D+01 E-N=-3.521262670773D+02  KE= 1.149561428909D+02
 Symmetry A'   KE= 1.083370796431D+02
 Symmetry A"   KE= 6.619063247715D+00
 Calling FoFJK, ICntrl=      2127 FMM=F ISym2X=1 I1Cent= 0 IOpClX= 0 NMat=1 NMatS=1 NMatT=0.
 ***** Axes restored to original set *****
 -------------------------------------------------------------------
 Center     Atomic                   Forces (Hartrees/Bohr)
 Number     Number              X              Y              Z
 -------------------------------------------------------------------
      1        1          -0.002578478    0.000000000    0.022151705
      2        8          -0.015837523   -0.000000000   -0.022965575
      3        6           0.008422919   -0.000000000    0.000516185
      4        1          -0.001702782    0.000000000   -0.004764442
      5        1           0.005847932   -0.004383988    0.002531063
      6        1           0.005847932    0.004383988    0.002531063
 -------------------------------------------------------------------
 Cartesian Forces:  Max     0.022965575 RMS     0.009104488
 -----------------------------------------------------------------------------------------------
                       Internal Coordinate Forces (Hartree/Bohr or radian)
  Cent   Atom   N1       Length/X         N2         Alpha/Y        N3         Beta/Z          J
 -----------------------------------------------------------------------------------------------
      1  H 
      2  O        1  -0.022152(     1)
      3  C        2   0.017927(     2)      1   0.004833(     6)
      4  H        3  -0.004844(     3)      2  -0.016177(     7)      1  -0.000000(    10)     0
      5  H        3  -0.001787(     4)      4  -0.005011(     8)      2   0.014248(    11)     0
      6  H        3  -0.001787(     5)      4  -0.005011(     9)      2  -0.014248(    12)     0
 -----------------------------------------------------------------------------------------------
 Internal  Forces:  Max     0.022151705 RMS     0.011486326

 GradGradGradGradGradGradGradGradGradGradGradGradGradGradGradGradGradGrad
 Berny optimization.
 Search for a local minimum.
 Step number   1 out of a maximum of    2
 All quantities printed in internal units (Hartrees-Bohrs-Radians)
 Second derivative matrix not updated -- first step.
 The second derivative matrix:
                          r1        r2        r3        r4        a1
           r1           0.49123
           r2          -0.00000   0.45954
           r3           0.00000  -0.00000   0.32706
           r4           0.00000   0.00000   0.00000   0.64778
           a1          -0.00000  -0.00000  -0.00000   0.00000   0.16000
           a2          -0.00000   0.00000   0.00000  -0.00000   0.00006
           a3          -0.00000   0.00000   0.00000  -0.00000   0.00016
           d2           0.00000  -0.00000  -0.00000   0.00000  -0.00002
           d3          -0.00000  -0.00000   0.00000   0.00000   0.00002
           d1           0.00000   0.00000  -0.00000  -0.00000   0.00000
                          a2        a3        d2        d3        d1
           a2           0.23924
           a3           0.08892   0.58025
           d2          -0.06032   0.07068   0.22746
           d3           0.06032  -0.07068  -0.11222   0.22746
           d1          -0.00000  -0.00000  -0.00843  -0.00843   0.05155
 ITU=  0
     Eigenvalues ---    0.04939   0.11740   0.15222   0.16000   0.32706
     Eigenvalues ---    0.38201   0.45954   0.49123   0.62494   0.64778
 Angle between quadratic step and forces=  13.17 degrees.
 Linear search not attempted -- first point.
 Variable       Old X    -DE/DX   Delta X   Delta X   Delta X     New X
                                 (Linear)    (Quad)   (Total)
    r1        1.87461  -0.02215   0.00000  -0.04509  -0.04509   1.82951
    r2        2.64184   0.01793   0.00000   0.03901   0.03901   2.68085
    r3        2.09571  -0.00484   0.00000  -0.01481  -0.01481   2.08089
    r4        2.10138  -0.00357   0.00000  -0.00552  -0.00552   2.09586
    a1        1.85005   0.00483   0.00000   0.03026   0.03026   1.88031
    a2        1.90066  -0.01618   0.00000  -0.04024  -0.04024   1.86042
    a3        1.88845  -0.01002   0.00000  -0.02064  -0.02064   1.86781
    d2        2.09265   0.01425   0.00000   0.03910   0.03910   2.13175
    d3       -2.09265  -0.01425   0.00000  -0.03910  -0.03910  -2.13175
    d1       -3.14159  -0.00000   0.00000  -0.00000  -0.00000  -3.14159
         Item               Value     Threshold  Converged?
 Maximum Force            0.022152     0.000450     NO 
 RMS     Force            0.012806     0.000300     NO 
 Maximum Displacement     0.045094     0.001800     NO 
 RMS     Displacement     0.031342     0.001200     NO 
 Predicted change in Energy=-1.953952D-03
 GradGradGradGradGradGradGradGradGradGradGradGradGradGradGradGradGradGrad

 1\1\GINC-B431\Force\RB3LYP\CC-pVDZ\C1H4O1\KMOORE\30-Jan-2019\1\\#B3LYP
 /cc-pVDZ Integral(Grid=SuperFineGrid) Force\\Optimization\\0,1\H\O,1,r
 1\C,2,r2,1,a1\H,3,r3,2,a2,1,d1,0\H,3,r4,4,a3,2,d2,0\H,3,r4,4,a3,2,d3,0
 \\r1=0.992\r2=1.398\r3=1.109\r4=1.112\a1=106.\a2=108.9\a3=108.2\d2=119
 .9\d3=-119.9\d1=-180.\\Version=ES64L-G09RevE.01\State=1-A'\HF=-115.721
 0916\RMSD=3.769e-09\RMSF=9.104e-03\Dipole=0.4327042,0.,-0.4271896\Quad
 rupole=-1.0695047,-0.5351455,1.6046503,0.,0.9457835,0.\PG=CS [SG(C1H2O
 1),X(H2)]\\@


 Time has a wonderful way of weeding out the trivial.
                                -- Richard Ben Sapir
 Job cpu time:       0 days  0 hours  0 minutes 26.1 seconds.
 File lengths (MBytes):  RWF=      5 Int=      0 D2E=      0 Chk=      1 Scr=      1
 Normal termination of Gaussian 09 at Wed Jan 30 21:31:21 2019.
