 Entering Gaussian System, Link 0=g09
 Initial command:
 /soft/gaussian/09-e.01/g09/l1.exe "/scratch/kmoore/Gau-110395.inp" -scrdir="/scratch/kmoore"
 Entering Link 1 = /soft/gaussian/09-e.01/g09/l1.exe PID=    110396.
  
 Copyright (c) 1988,1990,1992,1993,1995,1998,2003,2009,2015,
            Gaussian, Inc.  All Rights Reserved.
  
 This is part of the Gaussian(R) 09 program.  It is based on
 the Gaussian(R) 03 system (copyright 2003, Gaussian, Inc.),
 the Gaussian(R) 98 system (copyright 1998, Gaussian, Inc.),
 the Gaussian(R) 94 system (copyright 1995, Gaussian, Inc.),
 the Gaussian 92(TM) system (copyright 1992, Gaussian, Inc.),
 the Gaussian 90(TM) system (copyright 1990, Gaussian, Inc.),
 the Gaussian 88(TM) system (copyright 1988, Gaussian, Inc.),
 the Gaussian 86(TM) system (copyright 1986, Carnegie Mellon
 University), and the Gaussian 82(TM) system (copyright 1983,
 Carnegie Mellon University). Gaussian is a federally registered
 trademark of Gaussian, Inc.
  
 This software contains proprietary and confidential information,
 including trade secrets, belonging to Gaussian, Inc.
  
 This software is provided under written license and may be
 used, copied, transmitted, or stored only in accord with that
 written license.
  
 The following legend is applicable only to US Government
 contracts under FAR:
  
                    RESTRICTED RIGHTS LEGEND
  
 Use, reproduction and disclosure by the US Government is
 subject to restrictions as set forth in subparagraphs (a)
 and (c) of the Commercial Computer Software - Restricted
 Rights clause in FAR 52.227-19.
  
 Gaussian, Inc.
 340 Quinnipiac St., Bldg. 40, Wallingford CT 06492
  
  
 ---------------------------------------------------------------
 Warning -- This program may not be used in any manner that
 competes with the business of Gaussian, Inc. or will provide
 assistance to any competitor of Gaussian, Inc.  The licensee
 of this program is prohibited from giving any competitor of
 Gaussian, Inc. access to this program.  By using this program,
 the user acknowledges that Gaussian, Inc. is engaged in the
 business of creating and licensing software in the field of
 computational chemistry and represents and warrants to the
 licensee that it is not a competitor of Gaussian, Inc. and that
 it will not use this program in any manner prohibited above.
 ---------------------------------------------------------------
  

 Cite this work as:
 Gaussian 09, Revision E.01,
 M. J. Frisch, G. W. Trucks, H. B. Schlegel, G. E. Scuseria, 
 M. A. Robb, J. R. Cheeseman, G. Scalmani, V. Barone, B. Mennucci, 
 G. A. Petersson, H. Nakatsuji, M. Caricato, X. Li, H. P. Hratchian, 
 A. F. Izmaylov, J. Bloino, G. Zheng, J. L. Sonnenberg, M. Hada, 
 M. Ehara, K. Toyota, R. Fukuda, J. Hasegawa, M. Ishida, T. Nakajima, 
 Y. Honda, O. Kitao, H. Nakai, T. Vreven, J. A. Montgomery, Jr., 
 J. E. Peralta, F. Ogliaro, M. Bearpark, J. J. Heyd, E. Brothers, 
 K. N. Kudin, V. N. Staroverov, T. Keith, R. Kobayashi, J. Normand, 
 K. Raghavachari, A. Rendell, J. C. Burant, S. S. Iyengar, J. Tomasi, 
 M. Cossi, N. Rega, J. M. Millam, M. Klene, J. E. Knox, J. B. Cross, 
 V. Bakken, C. Adamo, J. Jaramillo, R. Gomperts, R. E. Stratmann, 
 O. Yazyev, A. J. Austin, R. Cammi, C. Pomelli, J. W. Ochterski, 
 R. L. Martin, K. Morokuma, V. G. Zakrzewski, G. A. Voth, 
 P. Salvador, J. J. Dannenberg, S. Dapprich, A. D. Daniels, 
 O. Farkas, J. B. Foresman, J. V. Ortiz, J. Cioslowski, 
 and D. J. Fox, Gaussian, Inc., Wallingford CT, 2013.
 
 ******************************************
 Gaussian 09:  ES64L-G09RevE.01 30-Nov-2015
                27-Jan-2019 
 ******************************************
 %mem=30gb
 %nproc=1
 Will use up to    1 processors via shared memory.
 ---------------
 # B3LYP/cc-pVDZ
 ---------------
 1/38=1/1;
 2/12=2,17=6,18=5,40=1/2;
 3/5=16,11=2,16=1,25=1,30=1,74=-5/1,2,3;
 4//1;
 5/5=2,38=5/2;
 6/7=2,8=2,9=2,10=2,28=1/1;
 99/5=1,9=1/99;
 ------------
 Single Point
 ------------
 Symbolic Z-matrix:
 Charge =  0 Multiplicity = 1
 O                     0.        0.        0. 
 C                     0.        0.        1.2014 
 H                     0.93757   0.        1.7892 
 H                    -0.93757   0.        1.7892 
 
                          Input orientation:                          
 ---------------------------------------------------------------------
 Center     Atomic      Atomic             Coordinates (Angstroms)
 Number     Number       Type             X           Y           Z
 ---------------------------------------------------------------------
      1          8           0        0.000000    0.000000    0.000000
      2          6           0        0.000000    0.000000    1.201402
      3          1           0        0.937573    0.000000    1.789196
      4          1           0       -0.937573    0.000000    1.789196
 ---------------------------------------------------------------------
                    Distance matrix (angstroms):
                    1          2          3          4
     1  O    0.000000
     2  C    1.201402   0.000000
     3  H    2.019967   1.106592   0.000000
     4  H    2.019967   1.106592   1.875146   0.000000
 Stoichiometry    CH2O
 Framework group  C2V[C2(CO),SGV(H2)]
 Deg. of freedom     3
 Full point group                 C2V     NOp   4
 Largest Abelian subgroup         C2V     NOp   4
 Largest concise Abelian subgroup C2      NOp   2
                         Standard orientation:                         
 ---------------------------------------------------------------------
 Center     Atomic      Atomic             Coordinates (Angstroms)
 Number     Number       Type             X           Y           Z
 ---------------------------------------------------------------------
      1          8           0        0.000000    0.000000    0.674175
      2          6           0        0.000000   -0.000000   -0.527227
      3          1           0        0.000000    0.937573   -1.115021
      4          1           0       -0.000000   -0.937573   -1.115021
 ---------------------------------------------------------------------
 Rotational constants (GHZ):    285.2278136     39.0287856     34.3311292
 Standard basis: CC-pVDZ (5D, 7F)
 There are    20 symmetry adapted cartesian basis functions of A1  symmetry.
 There are     3 symmetry adapted cartesian basis functions of A2  symmetry.
 There are     7 symmetry adapted cartesian basis functions of B1  symmetry.
 There are    10 symmetry adapted cartesian basis functions of B2  symmetry.
 There are    18 symmetry adapted basis functions of A1  symmetry.
 There are     3 symmetry adapted basis functions of A2  symmetry.
 There are     7 symmetry adapted basis functions of B1  symmetry.
 There are    10 symmetry adapted basis functions of B2  symmetry.
    38 basis functions,    80 primitive gaussians,    40 cartesian basis functions
     8 alpha electrons        8 beta electrons
       nuclear repulsion energy        31.3546200927 Hartrees.
 NAtoms=    4 NActive=    4 NUniq=    3 SFac= 1.78D+00 NAtFMM=   60 NAOKFM=F Big=F
 Integral buffers will be    131072 words long.
 Raffenetti 2 integral format.
 Two-electron integral symmetry is turned on.
 One-electron integrals computed using PRISM.
 NBasis=    38 RedAO= T EigKep=  3.55D-02  NBF=    18     3     7    10
 NBsUse=    38 1.00D-06 EigRej= -1.00D+00 NBFU=    18     3     7    10
 ExpMin= 1.22D-01 ExpMax= 1.17D+04 ExpMxC= 4.01D+02 IAcc=1 IRadAn=         1 AccDes= 0.00D+00
 Harris functional with IExCor=  402 and IRadAn=       1 diagonalized for initial guess.
 HarFok:  IExCor=  402 AccDes= 0.00D+00 IRadAn=         1 IDoV= 1 UseB2=F ITyADJ=14
 ICtDFT=  3500011 ScaDFX=  1.000000  1.000000  1.000000  1.000000
 FoFCou: FMM=F IPFlag=           0 FMFlag=      100000 FMFlg1=           0
         NFxFlg=           0 DoJE=T BraDBF=F KetDBF=T FulRan=T
         wScrn=  0.000000 ICntrl=     500 IOpCl=  0 I1Cent=   200000004 NGrid=           0
         NMat0=    1 NMatS0=      1 NMatT0=    0 NMatD0=    1 NMtDS0=    0 NMtDT0=    0
 Petite list used in FoFCou.
 Initial guess orbital symmetries:
       Occupied  (A1) (A1) (A1) (A1) (B2) (A1) (B1) (B2)
       Virtual   (B1) (A1) (B2) (A1) (B1) (A1) (B2) (A1) (B2) (A1)
                 (A1) (A2) (B1) (B2) (B1) (A1) (B2) (A1) (B2) (A1)
                 (B1) (A2) (A1) (B2) (A1) (A2) (A1) (B1) (B2) (A1)
 The electronic state of the initial guess is 1-A1.
 Keep R1 ints in memory in symmetry-blocked form, NReq=1162159.
 Requested convergence on RMS density matrix=1.00D-08 within 128 cycles.
 Requested convergence on MAX density matrix=1.00D-06.
 Requested convergence on             energy=1.00D-06.
 No special actions if energy rises.
 Integral accuracy reduced to 1.0D-05 until final iterations.
 Initial convergence to 1.0D-05 achieved.  Increase integral accuracy.
 SCF Done:  E(RB3LYP) =  -114.507400999     A.U. after   12 cycles
            NFock= 12  Conv=0.86D-09     -V/T= 2.0059

 **********************************************************************

            Population analysis using the SCF density.

 **********************************************************************

 Orbital symmetries:
       Occupied  (A1) (A1) (A1) (A1) (B2) (A1) (B1) (B2)
       Virtual   (B1) (A1) (B2) (A1) (B1) (A1) (B2) (B2) (A1) (A1)
                 (A1) (A2) (B1) (B2) (B1) (A1) (B2) (A1) (B2) (B1)
                 (A1) (A2) (A1) (B2) (A1) (A2) (A1) (B1) (B2) (A1)
 The electronic state is 1-A1.
 Alpha  occ. eigenvalues --  -19.15856 -10.28665  -1.06408  -0.63526  -0.49538
 Alpha  occ. eigenvalues --   -0.44972  -0.40085  -0.26638
 Alpha virt. eigenvalues --   -0.04300   0.06828   0.13499   0.20914   0.45008
 Alpha virt. eigenvalues --    0.46493   0.54278   0.59257   0.63523   0.76251
 Alpha virt. eigenvalues --    0.87224   0.92650   0.98022   1.05438   1.16767
 Alpha virt. eigenvalues --    1.41486   1.43628   1.54587   1.66996   1.67637
 Alpha virt. eigenvalues --    1.68918   1.73514   2.25413   2.32659   2.40495
 Alpha virt. eigenvalues --    2.67514   2.80534   3.03681   3.33506   3.42597
          Condensed to atoms (all electrons):
               1          2          3          4
     1  O    7.568503   0.711010  -0.049535  -0.049535
     2  C    0.711010   4.397653   0.360365   0.360365
     3  H   -0.049535   0.360365   0.788354  -0.104102
     4  H   -0.049535   0.360365  -0.104102   0.788354
 Mulliken charges:
               1
     1  O   -0.180442
     2  C    0.170606
     3  H    0.004918
     4  H    0.004918
 Sum of Mulliken charges =  -0.00000
 Mulliken charges with hydrogens summed into heavy atoms:
               1
     1  O   -0.180442
     2  C    0.180442
 Electronic spatial extent (au):  <R**2>=             59.9893
 Charge=             -0.0000 electrons
 Dipole moment (field-independent basis, Debye):
    X=              0.0000    Y=             -0.0000    Z=             -2.0749  Tot=              2.0749
 Quadrupole moment (field-independent basis, Debye-Ang):
   XX=            -11.3757   YY=            -11.5403   ZZ=            -11.9082
   XY=              0.0000   XZ=             -0.0000   YZ=              0.0000
 Traceless Quadrupole moment (field-independent basis, Debye-Ang):
   XX=              0.2324   YY=              0.0678   ZZ=             -0.3001
   XY=              0.0000   XZ=             -0.0000   YZ=              0.0000
 Octapole moment (field-independent basis, Debye-Ang**2):
  XXX=              0.0000  YYY=             -0.0000  ZZZ=              1.4780  XYY=              0.0000
  XXY=             -0.0000  XXZ=              0.9943  XZZ=              0.0000  YZZ=             -0.0000
  YYZ=              0.2659  XYZ=             -0.0000
 Hexadecapole moment (field-independent basis, Debye-Ang**3):
 XXXX=             -9.3466 YYYY=            -18.4880 ZZZZ=            -44.0086 XXXY=             -0.0000
 XXXZ=             -0.0000 YYYX=             -0.0000 YYYZ=             -0.0000 ZZZX=             -0.0000
 ZZZY=              0.0000 XXYY=             -4.8561 XXZZ=             -8.8199 YYZZ=            -10.2160
 XXYZ=              0.0000 YYXZ=             -0.0000 ZZXY=             -0.0000
 N-N= 3.135462009273D+01 E-N=-3.314840581415D+02  KE= 1.138309539893D+02
 Symmetry A1   KE= 1.034869421211D+02
 Symmetry A2   KE= 1.674365695807D-35
 Symmetry B1   KE= 3.628966686165D+00
 Symmetry B2   KE= 6.715045182056D+00
 1\1\GINC-B460\SP\RB3LYP\CC-pVDZ\C1H2O1\KMOORE\27-Jan-2019\0\\# B3LYP/c
 c-pVDZ\\Single Point\\0,1\O,0,0.,0.,0.\C,0,0.,0.,1.201402\H,0,0.937573
 ,0.,1.789196\H,0,-0.937573,0.,1.789196\\Version=ES64L-G09RevE.01\State
 =1-A1\HF=-114.507401\RMSD=8.629e-10\Dipole=0.,0.,0.8163407\Quadrupole=
 0.050374,0.1727598,-0.2231338,0.,0.,0.\PG=C02V [C2(C1O1),SGV(H2)]\\@


 TOWERING GENIUS DISDAINS A BEATEN PATH.  IT SEEKS 
 REGIONS HITHERTO UNEXPLORED.

                                -- ABRAHAM LINCOLN
 Job cpu time:       0 days  0 hours  0 minutes  1.1 seconds.
 File lengths (MBytes):  RWF=      5 Int=      0 D2E=      0 Chk=      1 Scr=      1
 Normal termination of Gaussian 09 at Sun Jan 27 13:22:47 2019.
