
                                 *****************
                                 * O   R   C   A *
                                 *****************

           --- An Ab Initio, DFT and Semiempirical electronic structure package ---

                  #######################################################
                  #                        -***-                        #
                  #  Department of molecular theory and spectroscopy    #
                  #              Directorship: Frank Neese              #
                  # Max Planck Institute for Chemical Energy Conversion #
                  #                  D-45470 Muelheim/Ruhr              #
                  #                       Germany                       #
                  #                                                     #
                  #                  All rights reserved                #
                  #                        -***-                        #
                  #######################################################


                         Program Version 4.0.1.2 - RELEASE -


 With contributions from (in alphabetic order):
   Daniel Aravena         : Magnetic Properties
   Michael Atanasov       : Ab Initio Ligand Field Theory
   Ute Becker             : Parallelization
   Martin Brehm           : Molecular dynamics
   Dmytro Bykov           : SCF Hessian
   Vijay G. Chilkuri      : MRCI spin determinant printing
   Dipayan Datta          : RHF DLPNO-CCSD density
   Achintya Kumar Dutta   : EOM-CC, STEOM-CC
   Dmitry Ganyushin       : Spin-Orbit,Spin-Spin,Magnetic field MRCI
   Yang Guo               : DLPNO-NEVPT2, CIM, IAO-localization
   Andreas Hansen         : Spin unrestricted coupled pair/coupled cluster methods
   Lee Huntington         : MR-EOM, pCC
   Robert Izsak           : Overlap fitted RIJCOSX, COSX-SCS-MP3, EOM
   Christian Kollmar      : KDIIS, OOCD, Brueckner-CCSD(T), CCSD density
   Simone Kossmann        : Meta GGA functionals, TD-DFT gradient, OOMP2, MP2 Hessian
   Martin Krupicka        : AUTO-CI
   Dagmar Lenk            : GEPOL surface
   Dimitrios Liakos       : Extrapolation schemes; parallel MDCI
   Dimitrios Manganas     : ROCIS; embedding schemes
   Dimitrios Pantazis     : SARC Basis sets
   Taras Petrenko         : DFT Hessian,TD-DFT gradient, ASA, ECA, R-Raman, ABS, FL, XAS/XES, NRVS
   Peter Pinski           : DLPNO-MP2
   Christoph Reimann      : Effective Core Potentials
   Marius Retegan         : Local ZFS, SOC
   Christoph Riplinger    : Optimizer, TS searches, QM/MM, DLPNO-CCSD(T), (RO)-DLPNO pert. Triples
   Tobias Risthaus        : Range-separated hybrids, TD-DFT gradient, RPA, STAB
   Michael Roemelt        : Restricted open shell CIS
   Masaaki Saitow         : Open-shell DLPNO
   Barbara Sandhoefer     : DKH picture change effects
   Kantharuban Sivalingam : CASSCF convergence, NEVPT2, FIC-MRCI
   Georgi Stoychev        : AutoAux
   Boris Wezisla          : Elementary symmetry handling
   Frank Wennmohs         : Technical directorship


 We gratefully acknowledge several colleagues who have allowed us to
 interface, adapt or use parts of their codes:
   Stefan Grimme, W. Hujo, H. Kruse,             : VdW corrections, initial TS optimization,
                  C. Bannwarth                     DFT functionals, gCP, sTDA/sTD-DF
   Ed Valeev                                     : LibInt (2-el integral package), F12 methods
   Garnet Chan, S. Sharma, J. Yang, R. Olivares  : DMRG
   Ulf Ekstrom                                   : XCFun DFT Library
   Mihaly Kallay                                 : mrcc  (arbitrary order and MRCC methods)
   Andreas Klamt, Michael Diedenhofen            : otool_cosmo (COSMO solvation model)
   Jiri Pittner, Ondrej Demel                    : Mk-CCSD
   Frank Weinhold                                : gennbo (NPA and NBO analysis)
   Christopher J. Cramer and Donald G. Truhlar   : smd solvation model


 Your calculation uses the libint2 library for the computation of 2-el integrals
 For citations please refer to: http://libint.valeyev.net

 This ORCA versions uses:
   CBLAS   interface :  Fast vector & matrix operations
   LAPACKE interface :  Fast linear algebra routines
   SCALAPACK package :  Parallel linear algebra routines


Your calculation utilizes the basis: cc-pVDZ 
       H, B-Ne : Obtained from the ccRepo (grant-hill.group.shef.ac.uk/ccrepo) Feb. 2017
                 T. H. Dunning, Jr., J. Chem. Phys. 90, 1007 (1989)
            He : Obtained from the ccRepo (grant-hill.group.shef.ac.uk/ccrepo) Feb. 2017
                 D. E. Woon, T. H. Dunning, Jr., J. Chem. Phys. 100, 2975 (1994)
  Li-Be, Na-Mg : Obtained from the ccRepo (grant-hill.group.shef.ac.uk/ccrepo) Feb. 2017
                 B. P. Prascher, D. E. Woon, K. A. Peterson, T. H. Dunning, Jr., A. K. Wilson, Theor. Chem. Acc. 128, 69 (2011)
         Al-Ar : Obtained from the ccRepo (grant-hill.group.shef.ac.uk/ccrepo) Feb. 2017
                 D. E. Woon, T. H. Dunning, Jr., J. Chem. Phys. 98, 1358 (1993)
            Ca : Obtained from the Peterson Research Group Website (tyr0.chem.wsu.edu/~kipeters) Feb. 2017
                 J. Koput, K. A. Peterson, J. Phys. Chem. 106, 9595 (2002)
         Sc-Zn : Obtained from the ccRepo (grant-hill.group.shef.ac.uk/ccrepo) Feb. 2017
                 N. B. Balabanov, K. A. Peterson, J. Chem. Phys. 123, 064107 (2005)
                 N. B. Balabanov, K. A. Peterson, J. Chem. Phys. 125, 074110 (2006)
         Ga-Kr : Obtained from the ccRepo (grant-hill.group.shef.ac.uk/ccrepo) Feb. 2017
                 A. K. Wilson, D. E. Woon, K. A. Peterson, T. H. Dunning, Jr., J. Chem. Phys. 110, 7667 (1999)

================================================================================
                                        WARNINGS
                       Please study these warnings very carefully!
================================================================================

Warning: TCutStore was < 0. Adjusted to Thresh (uncritical)

INFO   : the flag for use of LIBINT has been found!

================================================================================
                                       INPUT FILE
================================================================================
NAME = /scratch/kmoore/ORCASCR_1548617091031835535/input.dat
|  1> # Orca 4.0 Computation 
|  2> 
|  3> ! UHF 
|  4> ! cc-pVDZ 
|  5> 
|  6> * xyz 0 2
|  7>  O       0.000000    0.000000    0.000000
|  8>  O       0.000000    0.000000    1.311565
|  9>  H       0.943625    0.000000    1.573176
| 10> *
| 11> 
| 12> 
| 13>                          ****END OF INPUT****
================================================================================

                       ****************************
                       * Single Point Calculation *
                       ****************************

---------------------------------
CARTESIAN COORDINATES (ANGSTROEM)
---------------------------------
  O      0.000000    0.000000    0.000000
  O      0.000000    0.000000    1.311565
  H      0.943625    0.000000    1.573176

----------------------------
CARTESIAN COORDINATES (A.U.)
----------------------------
  NO LB      ZA    FRAG     MASS         X           Y           Z
   0 O     8.0000    0    15.999    0.000000    0.000000    0.000000
   1 O     8.0000    0    15.999    0.000000    0.000000    2.478499
   2 H     1.0000    0     1.008    1.783193    0.000000    2.972872

--------------------------------
INTERNAL COORDINATES (ANGSTROEM)
--------------------------------
 O      0   0   0     0.000000000000     0.00000000     0.00000000
 O      1   0   0     1.311565000000     0.00000000     0.00000000
 H      2   1   0     0.979218288200   105.49552466     0.00000000

---------------------------
INTERNAL COORDINATES (A.U.)
---------------------------
 O      0   0   0     0.000000000000     0.00000000     0.00000000
 O      1   0   0     2.478498656836     0.00000000     0.00000000
 H      2   1   0     1.850454390026   105.49552466     0.00000000

---------------------
BASIS SET INFORMATION
---------------------
There are 2 groups of distinct atoms

 Group   1 Type O   : 17s4p1d contracted to 3s2p1d pattern {881/31/1}
 Group   2 Type H   : 4s1p contracted to 2s1p pattern {31/1}

Atom   0O    basis set group =>   1
Atom   1O    basis set group =>   1
Atom   2H    basis set group =>   2
------------------------------------------------------------------------------
                           ORCA GTO INTEGRAL CALCULATION
------------------------------------------------------------------------------

                         BASIS SET STATISTICS AND STARTUP INFO

 # of primitive gaussian shells          ...   49
 # of primitive gaussian functions       ...   75
 # of contracted shells                  ...   15
 # of contracted basis functions         ...   33
 Highest angular momentum                ...    2
 Maximum contraction depth               ...    8
 Integral package used                   ... LIBINT
 Integral threshhold            Thresh   ...  1.000e-10
 Primitive cut-off              TCut     ...  1.000e-11


------------------------------ INTEGRAL EVALUATION ----------------------------


 * One electron integrals 
 Pre-screening matrix                    ... done
 Shell pair data                         ... done (   0.000 sec)

-------------------------------------------------------------------------------
                                 ORCA SCF
-------------------------------------------------------------------------------

------------
SCF SETTINGS
------------
Hamiltonian:
 Ab initio Hamiltonian  Method          .... Hartree-Fock(GTOs)


General Settings:
 Integral files         IntName         .... /scratch/kmoore/ORCASCR_1548617091031835535/input
 Hartree-Fock type      HFTyp           .... UHF
 Total Charge           Charge          ....    0
 Multiplicity           Mult            ....    2
 Number of Electrons    NEL             ....   17
 Basis Dimension        Dim             ....   33
 Nuclear Repulsion      ENuc            ....     32.4530418645 Eh

Convergence Acceleration:
 DIIS                   CNVDIIS         .... on
   Start iteration      DIISMaxIt       ....    12
   Startup error        DIISStart       ....  0.200000
   # of expansion vecs  DIISMaxEq       ....     5
   Bias factor          DIISBfac        ....   1.050
   Max. coefficient     DIISMaxC        ....  10.000
 Newton-Raphson         CNVNR           .... off
 SOSCF                  CNVSOSCF        .... off
 Level Shifting         CNVShift        .... on
   Level shift para.    LevelShift      ....    0.2500
   Turn off err/grad.   ShiftErr        ....    0.0010
 Zerner damping         CNVZerner       .... off
 Static damping         CNVDamp         .... on
   Fraction old density DampFac         ....    0.7000
   Max. Damping (<1)    DampMax         ....    0.9800
   Min. Damping (>=0)   DampMin         ....    0.0000
   Turn off err/grad.   DampErr         ....    0.1000
 Fernandez-Rico         CNVRico         .... off

SCF Procedure:
 Maximum # iterations   MaxIter         ....   125
 SCF integral mode      SCFMode         .... Direct
   Integral package                     .... LIBINT
 Reset frequeny         DirectResetFreq ....    20
 Integral Threshold     Thresh          ....  1.000e-10 Eh
 Primitive CutOff       TCut            ....  1.000e-11 Eh

Convergence Tolerance:
 Convergence Check Mode ConvCheckMode   .... Total+1el-Energy
 Convergence forced     ConvForced      .... 0
 Energy Change          TolE            ....  1.000e-06 Eh
 1-El. energy change                    ....  1.000e-03 Eh
 DIIS Error             TolErr          ....  1.000e-06


Diagonalization of the overlap matrix:
Smallest eigenvalue                        ... 2.183e-02
Time for diagonalization                   ...    0.001 sec
Threshold for overlap eigenvalues          ... 1.000e-08
Number of eigenvalues below threshold      ... 0
Time for construction of square roots      ...    0.000 sec
Total time needed                          ...    0.001 sec

-------------------
DFT GRID GENERATION
-------------------

General Integration Accuracy     IntAcc      ...  4.340
Radial Grid Type                 RadialGrid  ... Gauss-Chebyshev
Angular Grid (max. acc.)         AngularGrid ... Lebedev-110
Angular grid pruning method      GridPruning ... 3 (G Style)
Weight generation scheme         WeightScheme... Becke
Basis function cutoff            BFCut       ...    1.0000e-10
Integration weight cutoff        WCut        ...    1.0000e-14
Grids for H and He will be reduced by one unit

# of grid points (after initial pruning)     ...   4226 (   0.0 sec)
# of grid points (after weights+screening)   ...   4196 (   0.0 sec)
nearest neighbour list constructed           ...    0.0 sec
Grid point re-assignment to atoms done       ...    0.0 sec
Grid point division into batches done        ...    0.0 sec
Reduced shell lists constructed in    0.0 sec

Total number of grid points                  ...     4196
Total number of batches                      ...       67
Average number of points per batch           ...       62
Average number of grid points per atom       ...     1399
Average number of shells per batch           ...    13.62 (90.78%)
Average number of basis functions per batch  ...    29.76 (90.20%)
Average number of large shells per batch     ...    12.68 (93.09%)
Average number of large basis fcns per batch ...    27.71 (93.08%)
Maximum spatial batch extension              ...  19.26, 36.28, 17.58 au
Average spatial batch extension              ...   4.61,  5.70,  4.97 au

Time for grid setup =    0.027 sec

------------------------------
INITIAL GUESS: MODEL POTENTIAL
------------------------------
Loading Hartree-Fock densities                     ... done
Calculating cut-offs                               ... done
Setting up the integral package                    ... done
Initializing the effective Hamiltonian             ... done
Starting the Coulomb interaction                   ... done (   0.0 sec)
Reading the grid                                   ... done
Mapping shells                                     ... done
Starting the XC term evaluation                    ... done (   0.0 sec)
Transforming the Hamiltonian                       ... done (   0.0 sec)
Diagonalizing the Hamiltonian                      ... done (   0.0 sec)
Back transforming the eigenvectors                 ... done (   0.0 sec)
Now organizing SCF variables                       ... done
                      ------------------
                      INITIAL GUESS DONE (   0.2 sec)
                      ------------------
--------------
SCF ITERATIONS
--------------
ITER       Energy         Delta-E        Max-DP      RMS-DP      [F,P]     Damp
               ***  Starting incremental Fock matrix formation  ***
  0   -150.1259856814   0.000000000000 0.01948283  0.00131897  0.1238332 0.7000
  1   -150.1412014659  -0.015215784485 0.01689798  0.00102124  0.0906391 0.7000
                               ***Turning on DIIS***
  2   -150.1517236433  -0.010522177357 0.04368216  0.00235573  0.0658904 0.0000
  3   -150.1558561640  -0.004132520783 0.01885211  0.00108897  0.0350486 0.0000
  4   -150.1915569382  -0.035700774202 0.01277800  0.00062152  0.0283870 0.0000
  5   -150.1651980944   0.026358843804 0.01431409  0.00074286  0.0199348 0.0000
  6   -150.1827921048  -0.017594010325 0.02181157  0.00092256  0.0150240 0.0000
  7   -150.1878858350  -0.005093730192 0.01586632  0.00063772  0.0082306 0.0000
  8   -150.1868714949   0.001014340046 0.00583222  0.00024179  0.0037429 0.0000
  9   -150.1875688294  -0.000697334437 0.00209166  0.00011018  0.0012363 0.0000
 10   -150.1876396402  -0.000070810889 0.00077230  0.00006242  0.0004079 0.0000
 11   -150.1876064358   0.000033204449 0.00027704  0.00001962  0.0000958 0.0000
 12   -150.1876012640   0.000005171766 0.00025639  0.00001849  0.0000253 0.0000
 13   -150.1875916603   0.000009603697 0.00020693  0.00001411  0.0000111 0.0000
 14   -150.1876050832  -0.000013422836 0.00013261  0.00000871  0.0000110 0.0000
 15   -150.1876009172   0.000004165960 0.00012125  0.00000796  0.0000114 0.0000
 16   -150.1876026911  -0.000001773870 0.00005937  0.00000378  0.0000105 0.0000
 17   -150.1875997486   0.000002942510 0.00011046  0.00000703  0.0000095 0.0000
                 **** Energy Check signals convergence ****

               *****************************************************
               *                     SUCCESS                       *
               *           SCF CONVERGED AFTER  18 CYCLES          *
               *****************************************************


----------------
TOTAL SCF ENERGY
----------------

Total Energy       :         -150.18759902 Eh           -4086.81234 eV

Components:
Nuclear Repulsion  :           32.45304186 Eh             883.09216 eV
Electronic Energy  :         -182.64064089 Eh           -4969.90450 eV
One Electron Energy:         -271.58736418 Eh           -7390.26789 eV
Two Electron Energy:           88.94672329 Eh            2420.36339 eV

Virial components:
Potential Energy   :         -300.40284285 Eh           -8174.37693 eV
Kinetic Energy     :          150.21524382 Eh            4087.56459 eV
Virial Ratio       :            1.99981597


---------------
SCF CONVERGENCE
---------------

  Last Energy change         ...    7.2476e-07  Tolerance :   1.0000e-06
  Last MAX-Density change    ...    7.2548e-05  Tolerance :   1.0000e-05
  Last RMS-Density change    ...    4.4841e-06  Tolerance :   1.0000e-06
  Last DIIS Error            ...    6.1118e-06  Tolerance :   1.0000e-06

             **** THE GBW FILE WAS UPDATED (/scratch/kmoore/ORCASCR_1548617091031835535/input.gbw) ****
             **** DENSITY FILE WAS UPDATED (/scratch/kmoore/ORCASCR_1548617091031835535/input.scfp.tmp) ****
             **** ENERGY FILE WAS UPDATED (/scratch/kmoore/ORCASCR_1548617091031835535/input.en.tmp) ****
----------------------
UHF SPIN CONTAMINATION
----------------------

Expectation value of <S**2>     :     0.758818
Ideal value S*(S+1) for S=0.5   :     0.750000
Deviation                       :     0.008818

----------------
ORBITAL ENERGIES
----------------
                 SPIN UP ORBITALS
  NO   OCC          E(Eh)            E(eV) 
   0   1.0000     -20.678531      -562.6914 
   1   1.0000     -20.666684      -562.3691 
   2   1.0000      -1.583291       -43.0835 
   3   1.0000      -1.197309       -32.5804 
   4   1.0000      -0.768815       -20.9205 
   5   1.0000      -0.751588       -20.4517 
   6   1.0000      -0.670394       -18.2423 
   7   1.0000      -0.513865       -13.9830 
   8   1.0000      -0.511034       -13.9059 
   9   0.0000       0.172281         4.6880 
  10   0.0000       0.364542         9.9197 
  11   0.0000       0.778608        21.1870 
  12   0.0000       1.088635        29.6233 
  13   0.0000       1.097573        29.8665 
  14   0.0000       1.139788        31.0152 
  15   0.0000       1.162036        31.6206 
  16   0.0000       1.196449        32.5570 
  17   0.0000       1.262588        34.3568 
  18   0.0000       1.517051        41.2811 
  19   0.0000       1.528898        41.6034 
  20   0.0000       1.706000        46.4226 
  21   0.0000       2.006156        54.5903 
  22   0.0000       2.357771        64.1582 
  23   0.0000       2.458907        66.9103 
  24   0.0000       2.706347        73.6434 
  25   0.0000       2.821885        76.7874 
  26   0.0000       2.839951        77.2790 
  27   0.0000       2.948868        80.2428 
  28   0.0000       3.219432        87.6052 
  29   0.0000       3.503018        95.3220 
  30   0.0000       3.615220        98.3751 
  31   0.0000       3.892523       105.9209 
  32   0.0000       4.230095       115.1067 

                 SPIN DOWN ORBITALS
  NO   OCC          E(Eh)            E(eV) 
   0   1.0000     -20.658603      -562.1492 
   1   1.0000     -20.637901      -561.5858 
   2   1.0000      -1.521374       -41.3987 
   3   1.0000      -1.097327       -29.8598 
   4   1.0000      -0.748632       -20.3713 
   5   1.0000      -0.645851       -17.5745 
   6   1.0000      -0.567020       -15.4294 
   7   1.0000      -0.475706       -12.9446 
   8   0.0000       0.141481         3.8499 
   9   0.0000       0.174992         4.7618 
  10   0.0000       0.400749        10.9049 
  11   0.0000       0.780452        21.2372 
  12   0.0000       1.110068        30.2065 
  13   0.0000       1.156498        31.4699 
  14   0.0000       1.166282        31.7361 
  15   0.0000       1.177129        32.0313 
  16   0.0000       1.275267        34.7018 
  17   0.0000       1.327533        36.1240 
  18   0.0000       1.522137        41.4195 
  19   0.0000       1.539511        41.8922 
  20   0.0000       1.722928        46.8832 
  21   0.0000       2.020200        54.9724 
  22   0.0000       2.364252        64.3346 
  23   0.0000       2.520903        68.5973 
  24   0.0000       2.715666        73.8970 
  25   0.0000       2.923082        79.5411 
  26   0.0000       2.960576        80.5614 
  27   0.0000       2.973037        80.9005 
  28   0.0000       3.246215        88.3340 
  29   0.0000       3.567661        97.0810 
  30   0.0000       3.624859        98.6374 
  31   0.0000       3.907339       106.3241 
  32   0.0000       4.249605       115.6376 

                    ********************************
                    * MULLIKEN POPULATION ANALYSIS *
                    ********************************

--------------------------------------------
MULLIKEN ATOMIC CHARGES AND SPIN POPULATIONS
--------------------------------------------
   0 O :   -0.069022    0.927385
   1 O :   -0.138888    0.083957
   2 H :    0.207910   -0.011342
Sum of atomic charges         :   -0.0000000
Sum of atomic spin populations:    1.0000000

-----------------------------------------------------
MULLIKEN REDUCED ORBITAL CHARGES AND SPIN POPULATIONS
-----------------------------------------------------
CHARGE
  0 O s       :     3.915617  s :     3.915617
      pz      :     1.019401  p :     4.127840
      px      :     1.988007
      py      :     1.120432
      dz2     :     0.015387  d :     0.025565
      dxz     :     0.003686
      dyz     :     0.005956
      dx2y2   :     0.000531
      dxy     :     0.000005
  1 O s       :     3.752903  s :     3.752903
      pz      :     1.073783  p :     4.357093
      px      :     1.431940
      py      :     1.851370
      dz2     :     0.014497  d :     0.028892
      dxz     :     0.006152
      dyz     :     0.003556
      dx2y2   :     0.004017
      dxy     :     0.000670
  2 H s       :     0.718267  s :     0.718267
      pz      :     0.009918  p :     0.073823
      px      :     0.045894
      py      :     0.018011

SPIN
  0 O s       :     0.028812  s :     0.028812
      pz      :     0.024409  p :     0.899531
      px      :     0.000707
      py      :     0.874416
      dz2     :     0.000244  d :    -0.000959
      dxz     :     0.000033
      dyz     :    -0.001131
      dx2y2   :    -0.000106
      dxy     :     0.000002
  1 O s       :     0.007159  s :     0.007159
      pz      :    -0.053483  p :     0.076188
      px      :     0.005507
      py      :     0.124165
      dz2     :     0.000272  d :     0.000610
      dxz     :    -0.000226
      dyz     :     0.000623
      dx2y2   :    -0.000142
      dxy     :     0.000083
  2 H s       :    -0.013058  s :    -0.013058
      pz      :    -0.000350  p :     0.001717
      px      :     0.000223
      py      :     0.001843


                     *******************************
                     * LOEWDIN POPULATION ANALYSIS *
                     *******************************

-------------------------------------------
LOEWDIN ATOMIC CHARGES AND SPIN POPULATIONS
-------------------------------------------
   0 O :   -0.049011    0.898472
   1 O :   -0.006844    0.106644
   2 H :    0.055855   -0.005116

----------------------------------------------------
LOEWDIN REDUCED ORBITAL CHARGES AND SPIN POPULATIONS
----------------------------------------------------
CHARGE
  0 O s       :     3.747045  s :     3.747045
      pz      :     1.153434  p :     4.260499
      px      :     1.974563
      py      :     1.132502
      dz2     :     0.024579  d :     0.041467
      dxz     :     0.006036
      dyz     :     0.010311
      dx2y2   :     0.000535
      dxy     :     0.000005
  1 O s       :     3.484959  s :     3.484959
      pz      :     1.173932  p :     4.470382
      px      :     1.497815
      py      :     1.798635
      dz2     :     0.024629  d :     0.051503
      dxz     :     0.013333
      dyz     :     0.005896
      dx2y2   :     0.007456
      dxy     :     0.000188
  2 H s       :     0.751732  s :     0.751732
      pz      :     0.031715  p :     0.192413
      px      :     0.108236
      py      :     0.052462

SPIN
  0 O s       :     0.018278  s :     0.018278
      pz      :     0.020137  p :     0.880390
      px      :     0.001317
      py      :     0.858936
      dz2     :     0.000329  d :    -0.000196
      dxz     :     0.000011
      dyz     :    -0.000432
      dx2y2   :    -0.000106
      dxy     :     0.000002
  1 O s       :     0.006517  s :     0.006517
      pz      :    -0.040380  p :     0.096303
      px      :     0.003447
      py      :     0.133236
      dz2     :     0.001136  d :     0.003825
      dxz     :    -0.000396
      dyz     :     0.003184
      dx2y2   :    -0.000125
      dxy     :     0.000025
  2 H s       :    -0.010216  s :    -0.010216
      pz      :    -0.001111  p :     0.005100
      px      :     0.001161
      py      :     0.005049


                      *****************************
                      * MAYER POPULATION ANALYSIS *
                      *****************************

  NA   - Mulliken gross atomic population
  ZA   - Total nuclear charge
  QA   - Mulliken gross atomic charge
  VA   - Mayer's total valence
  BVA  - Mayer's bonded valence
  FA   - Mayer's free valence

  ATOM       NA         ZA         QA         VA         BVA        FA
  0 O      8.0690     8.0000    -0.0690     1.9256     1.1334     0.7922
  1 O      8.1389     8.0000    -0.1389     2.1167     2.0884     0.0282
  2 H      0.7921     1.0000     0.2079     0.9965     0.9963     0.0002

  Mayer bond orders larger than 0.1
B(  0-O ,  1-O ) :   1.1128 B(  1-O ,  2-H ) :   0.9757 

-------
TIMINGS
-------

Total SCF time: 0 days 0 hours 0 min 3 sec 

Total time                  ....       3.460 sec
Sum of individual times     ....       3.452 sec  ( 99.8%)

Fock matrix formation       ....       3.272 sec  ( 94.5%)
Diagonalization             ....       0.011 sec  (  0.3%)
Density matrix formation    ....       0.000 sec  (  0.0%)
Population analysis         ....       0.001 sec  (  0.0%)
Initial guess               ....       0.138 sec  (  4.0%)
Orbital Transformation      ....       0.000 sec  (  0.0%)
Orbital Orthonormalization  ....       0.000 sec  (  0.0%)
DIIS solution               ....       0.004 sec  (  0.1%)

-------------------------   --------------------
FINAL SINGLE POINT ENERGY      -150.187599023811
-------------------------   --------------------


                            ***************************************
                            *     ORCA property calculations      *
                            ***************************************

                                    ---------------------
                                    Active property flags
                                    ---------------------
   (+) Dipole Moment


------------------------------------------------------------------------------
                       ORCA ELECTRIC PROPERTIES CALCULATION
------------------------------------------------------------------------------

Dipole Moment Calculation                       ... on
Quadrupole Moment Calculation                   ... off
Polarizability Calculation                      ... off
GBWName                                         ... /scratch/kmoore/ORCASCR_1548617091031835535/input.gbw
Electron density file                           ... /scratch/kmoore/ORCASCR_1548617091031835535/input.scfp.tmp
The origin for moment calculation is the CENTER OF MASS  = ( 0.054459,  0.000000  1.292194)

-------------
DIPOLE MOMENT
-------------
                                X             Y             Z
Electronic contribution:     -0.13341      -0.00000      -0.46404
Nuclear contribution   :      0.85740       0.00000       0.83356
                        -----------------------------------------
Total Dipole Moment    :      0.72399      -0.00000       0.36953
                        -----------------------------------------
Magnitude (a.u.)       :      0.81284
Magnitude (Debye)      :      2.06607


Timings for individual modules:

Sum of individual times         ...        3.794 sec (=   0.063 min)
GTO integral calculation        ...        0.307 sec (=   0.005 min)   8.1 %
SCF iterations                  ...        3.488 sec (=   0.058 min)  91.9 %
                             ****ORCA TERMINATED NORMALLY****
TOTAL RUN TIME: 0 days 0 hours 0 minutes 3 seconds 927 msec
