 Entering Gaussian System, Link 0=g09
 Initial command:
 /soft/gaussian/09-e.01/g09/l1.exe "/scratch/kmoore/Gau-12046.inp" -scrdir="/scratch/kmoore"
 Entering Link 1 = /soft/gaussian/09-e.01/g09/l1.exe PID=     12047.
  
 Copyright (c) 1988,1990,1992,1993,1995,1998,2003,2009,2015,
            Gaussian, Inc.  All Rights Reserved.
  
 This is part of the Gaussian(R) 09 program.  It is based on
 the Gaussian(R) 03 system (copyright 2003, Gaussian, Inc.),
 the Gaussian(R) 98 system (copyright 1998, Gaussian, Inc.),
 the Gaussian(R) 94 system (copyright 1995, Gaussian, Inc.),
 the Gaussian 92(TM) system (copyright 1992, Gaussian, Inc.),
 the Gaussian 90(TM) system (copyright 1990, Gaussian, Inc.),
 the Gaussian 88(TM) system (copyright 1988, Gaussian, Inc.),
 the Gaussian 86(TM) system (copyright 1986, Carnegie Mellon
 University), and the Gaussian 82(TM) system (copyright 1983,
 Carnegie Mellon University). Gaussian is a federally registered
 trademark of Gaussian, Inc.
  
 This software contains proprietary and confidential information,
 including trade secrets, belonging to Gaussian, Inc.
  
 This software is provided under written license and may be
 used, copied, transmitted, or stored only in accord with that
 written license.
  
 The following legend is applicable only to US Government
 contracts under FAR:
  
                    RESTRICTED RIGHTS LEGEND
  
 Use, reproduction and disclosure by the US Government is
 subject to restrictions as set forth in subparagraphs (a)
 and (c) of the Commercial Computer Software - Restricted
 Rights clause in FAR 52.227-19.
  
 Gaussian, Inc.
 340 Quinnipiac St., Bldg. 40, Wallingford CT 06492
  
  
 ---------------------------------------------------------------
 Warning -- This program may not be used in any manner that
 competes with the business of Gaussian, Inc. or will provide
 assistance to any competitor of Gaussian, Inc.  The licensee
 of this program is prohibited from giving any competitor of
 Gaussian, Inc. access to this program.  By using this program,
 the user acknowledges that Gaussian, Inc. is engaged in the
 business of creating and licensing software in the field of
 computational chemistry and represents and warrants to the
 licensee that it is not a competitor of Gaussian, Inc. and that
 it will not use this program in any manner prohibited above.
 ---------------------------------------------------------------
  

 Cite this work as:
 Gaussian 09, Revision E.01,
 M. J. Frisch, G. W. Trucks, H. B. Schlegel, G. E. Scuseria, 
 M. A. Robb, J. R. Cheeseman, G. Scalmani, V. Barone, B. Mennucci, 
 G. A. Petersson, H. Nakatsuji, M. Caricato, X. Li, H. P. Hratchian, 
 A. F. Izmaylov, J. Bloino, G. Zheng, J. L. Sonnenberg, M. Hada, 
 M. Ehara, K. Toyota, R. Fukuda, J. Hasegawa, M. Ishida, T. Nakajima, 
 Y. Honda, O. Kitao, H. Nakai, T. Vreven, J. A. Montgomery, Jr., 
 J. E. Peralta, F. Ogliaro, M. Bearpark, J. J. Heyd, E. Brothers, 
 K. N. Kudin, V. N. Staroverov, T. Keith, R. Kobayashi, J. Normand, 
 K. Raghavachari, A. Rendell, J. C. Burant, S. S. Iyengar, J. Tomasi, 
 M. Cossi, N. Rega, J. M. Millam, M. Klene, J. E. Knox, J. B. Cross, 
 V. Bakken, C. Adamo, J. Jaramillo, R. Gomperts, R. E. Stratmann, 
 O. Yazyev, A. J. Austin, R. Cammi, C. Pomelli, J. W. Ochterski, 
 R. L. Martin, K. Morokuma, V. G. Zakrzewski, G. A. Voth, 
 P. Salvador, J. J. Dannenberg, S. Dapprich, A. D. Daniels, 
 O. Farkas, J. B. Foresman, J. V. Ortiz, J. Cioslowski, 
 and D. J. Fox, Gaussian, Inc., Wallingford CT, 2013.
 
 ******************************************
 Gaussian 09:  ES64L-G09RevE.01 30-Nov-2015
                27-Jan-2019 
 ******************************************
 %mem=30gb
 %nproc=8
 Will use up to    8 processors via shared memory.
 ----------------------------------------------------------------
 #B3LYP/cc-pVDZ Integral(Grid=SuperFineGrid) Opt=(Cartesian) Freq
 ----------------------------------------------------------------
 1/10=7,14=-1,18=10,26=5,38=1/1,3;
 2/12=2,17=6,18=5,29=2,40=1/2;
 3/5=16,11=2,16=1,25=1,30=1,71=1,74=-5,75=-7/1,2,3;
 4//1;
 5/5=2,38=5/2;
 6/7=2,8=2,9=2,10=2,28=1/1;
 7/7=1,29=1/1,2,3,16;
 1/10=7,14=-1,18=10,26=5/3(2);
 2/29=1/2;
 99/12=1/99;
 2/29=1/2;
 3/5=16,11=2,16=1,25=1,30=1,71=1,74=-5,75=-7/1,2,3;
 4/5=5,16=3,69=1/1;
 5/5=2,38=5/2;
 7/7=1/1,2,3,16;
 1/14=-1,18=10,26=5/3(-5);
 2/29=1/2;
 6/7=2,8=2,9=2,10=2,19=2,28=1/1;
 99/9=1,12=1/99;
 ------------
 Optimization
 ------------
 Symbolic Z-matrix:
 Charge =  0 Multiplicity = 1
 H                     0.        0.        0. 
 O                     0.        0.        0.992 
 C                     1.34384   0.        1.37734 
 H                     1.39995   0.        2.48492 
 H                     1.85219   0.91576   1.00383 
 H                     1.85219  -0.91576   1.00383 
 

 GradGradGradGradGradGradGradGradGradGradGradGradGradGradGradGradGradGrad
 Berny optimization.
 Initialization pass.
 No Z-matrix variables, so optimization will use Cartesian coordinates.
 Trust Radius=3.00D-01 FncErr=1.00D-07 GrdErr=1.00D-07
 Number of steps in this run=     28 maximum allowed number of steps=    100.
 GradGradGradGradGradGradGradGradGradGradGradGradGradGradGradGradGradGrad

 ---------------------------------------------------------------------------------------------------
                            Z-MATRIX (ANGSTROMS AND DEGREES)
   CD    Cent   Atom    N1       Length/X        N2       Alpha/Y        N3        Beta/Z          J
 ---------------------------------------------------------------------------------------------------
      1      1  H        0   0.000000          0.000000          0.000000
      2      2  O        0   0.000000          0.000000          0.992000
      3      3  C        0   1.343844          0.000000          1.377341
      4      4  H        0   1.399951         -0.000000          2.484921
      5      5  H        0   1.852185          0.915763          1.003828
      6      6  H        0   1.852185         -0.915763          1.003828
 ---------------------------------------------------------------------------------------------------
                         Z-Matrix orientation:                         
 ---------------------------------------------------------------------
 Center     Atomic      Atomic             Coordinates (Angstroms)
 Number     Number       Type             X           Y           Z
 ---------------------------------------------------------------------
      1          1           0        0.000000    0.000000    0.000000
      2          8           0        0.000000    0.000000    0.992000
      3          6           0        1.343844    0.000000    1.377341
      4          1           0        1.399951   -0.000000    2.484921
      5          1           0        1.852185    0.915763    1.003828
      6          1           0        1.852185   -0.915763    1.003828
 ---------------------------------------------------------------------
                    Distance matrix (angstroms):
                    1          2          3          4          5
     1  H    0.000000
     2  O    0.992000   0.000000
     3  C    1.924314   1.398000   0.000000
     4  H    2.852139   2.046625   1.109000   0.000000
     5  H    2.297146   2.066241   1.112000   1.799104   0.000000
     6  H    2.297146   2.066241   1.112000   1.799104   1.831526
                    6
     6  H    0.000000
 Stoichiometry    CH4O
 Framework group  CS[SG(CH2O),X(H2)]
 Deg. of freedom     8
 Full point group                 CS      NOp   2
 Largest Abelian subgroup         CS      NOp   2
 Largest concise Abelian subgroup CS      NOp   2
                         Standard orientation:                         
 ---------------------------------------------------------------------
 Center     Atomic      Atomic             Coordinates (Angstroms)
 Number     Number       Type             X           Y           Z
 ---------------------------------------------------------------------
      1          1           0       -0.903422   -1.020053   -0.000000
      2          8           0        0.050149   -0.746621   -0.000000
      3          6           0        0.050149    0.651379    0.000000
      4          1           0        1.099358    1.010603    0.000000
      5          1           0       -0.449012    1.037074    0.915763
      6          1           0       -0.449012    1.037074   -0.915763
 ---------------------------------------------------------------------
 Rotational constants (GHZ):    122.2090309     25.4333789     24.5028354
 Standard basis: CC-pVDZ (5D, 7F)
 There are    35 symmetry adapted cartesian basis functions of A'  symmetry.
 There are    15 symmetry adapted cartesian basis functions of A"  symmetry.
 There are    33 symmetry adapted basis functions of A'  symmetry.
 There are    15 symmetry adapted basis functions of A"  symmetry.
    48 basis functions,    94 primitive gaussians,    50 cartesian basis functions
     9 alpha electrons        9 beta electrons
       nuclear repulsion energy        40.3498870181 Hartrees.
 NAtoms=    6 NActive=    6 NUniq=    5 SFac= 1.44D+00 NAtFMM=   60 NAOKFM=F Big=F
 Integral buffers will be    131072 words long.
 Raffenetti 2 integral format.
 Two-electron integral symmetry is turned on.
 One-electron integrals computed using PRISM.
 NBasis=    48 RedAO= T EigKep=  2.23D-02  NBF=    33    15
 NBsUse=    48 1.00D-06 EigRej= -1.00D+00 NBFU=    33    15
 ExpMin= 1.22D-01 ExpMax= 1.17D+04 ExpMxC= 4.01D+02 IAcc=3 IRadAn=         7 AccDes= 0.00D+00
 Harris functional with IExCor=  402 and IRadAn=       7 diagonalized for initial guess.
 HarFok:  IExCor=  402 AccDes= 0.00D+00 IRadAn=         7 IDoV= 1 UseB2=F ITyADJ=14
 ICtDFT=  3500011 ScaDFX=  1.000000  1.000000  1.000000  1.000000
 FoFCou: FMM=F IPFlag=           0 FMFlag=      100000 FMFlg1=           0
         NFxFlg=           0 DoJE=T BraDBF=F KetDBF=T FulRan=T
         wScrn=  0.000000 ICntrl=     500 IOpCl=  0 I1Cent=   200000004 NGrid=           0
         NMat0=    1 NMatS0=      1 NMatT0=    0 NMatD0=    1 NMtDS0=    0 NMtDT0=    0
 Petite list used in FoFCou.
 Initial guess orbital symmetries:
       Occupied  (A') (A') (A') (A') (A') (A") (A') (A') (A")
       Virtual   (A') (A') (A') (A") (A') (A') (A") (A') (A') (A")
                 (A') (A') (A') (A") (A') (A') (A") (A') (A") (A")
                 (A') (A") (A') (A') (A") (A') (A') (A') (A') (A")
                 (A') (A") (A') (A') (A") (A") (A') (A') (A')
 The electronic state of the initial guess is 1-A'.
 Keep R1 ints in memory in symmetry-blocked form, NReq=1597446.
 Requested convergence on RMS density matrix=1.00D-08 within 128 cycles.
 Requested convergence on MAX density matrix=1.00D-06.
 Requested convergence on             energy=1.00D-06.
 No special actions if energy rises.
 Integral accuracy reduced to 1.0D-05 until final iterations.
 Initial convergence to 1.0D-05 achieved.  Increase integral accuracy.
 SCF Done:  E(RB3LYP) =  -115.721091627     A.U. after   11 cycles
            NFock= 11  Conv=0.38D-08     -V/T= 2.0067

 **********************************************************************

            Population analysis using the SCF density.

 **********************************************************************

 Orbital symmetries:
       Occupied  (A') (A') (A') (A') (A') (A") (A') (A') (A")
       Virtual   (A') (A') (A") (A') (A') (A') (A") (A') (A') (A")
                 (A') (A') (A') (A") (A') (A') (A") (A') (A") (A')
                 (A") (A") (A') (A') (A") (A') (A') (A') (A') (A")
                 (A') (A") (A') (A') (A") (A") (A') (A') (A')
 The electronic state is 1-A'.
 Alpha  occ. eigenvalues --  -19.13007 -10.22684  -1.01270  -0.66929  -0.49711
 Alpha  occ. eigenvalues --   -0.43693  -0.41989  -0.32469  -0.26124
 Alpha virt. eigenvalues --    0.04952   0.09272   0.13490   0.13606   0.19843
 Alpha virt. eigenvalues --    0.44703   0.46451   0.49283   0.55933   0.62469
 Alpha virt. eigenvalues --    0.64157   0.64574   0.87197   0.89466   0.94986
 Alpha virt. eigenvalues --    1.00335   1.06572   1.19360   1.33822   1.39929
 Alpha virt. eigenvalues --    1.39929   1.57718   1.61232   1.64348   1.66735
 Alpha virt. eigenvalues --    1.75093   1.86637   1.96694   2.05547   2.06942
 Alpha virt. eigenvalues --    2.13436   2.37515   2.38997   2.40381   2.92576
 Alpha virt. eigenvalues --    3.01410   3.07475   3.18961   3.64241
          Condensed to atoms (all electrons):
               1          2          3          4          5          6
     1  H    0.568119   0.338797  -0.048287   0.009619  -0.007770  -0.007770
     2  O    0.338797   7.671457   0.369502  -0.024173  -0.036016  -0.036016
     3  C   -0.048287   0.369502   4.413583   0.395548   0.389117   0.389117
     4  H    0.009619  -0.024173   0.395548   0.658885  -0.036050  -0.036050
     5  H   -0.007770  -0.036016   0.389117  -0.036050   0.729247  -0.044837
     6  H   -0.007770  -0.036016   0.389117  -0.036050  -0.044837   0.729247
 Mulliken charges:
               1
     1  H    0.147292
     2  O   -0.283551
     3  C    0.091419
     4  H    0.032222
     5  H    0.006309
     6  H    0.006309
 Sum of Mulliken charges =  -0.00000
 Mulliken charges with hydrogens summed into heavy atoms:
               1
     2  O   -0.136259
     3  C    0.136259
 Electronic spatial extent (au):  <R**2>=             83.3451
 Charge=              0.0000 electrons
 Dipole moment (field-independent basis, Debye):
    X=             -1.3469    Y=              0.7579    Z=             -0.0000  Tot=              1.5455
 Quadrupole moment (field-independent basis, Debye-Ang):
   XX=            -11.5662   YY=            -13.2683   ZZ=            -13.4969
   XY=              2.0318   XZ=              0.0000   YZ=             -0.0000
 Traceless Quadrupole moment (field-independent basis, Debye-Ang):
   XX=              1.2109   YY=             -0.4911   ZZ=             -0.7198
   XY=              2.0318   XZ=              0.0000   YZ=             -0.0000
 Octapole moment (field-independent basis, Debye-Ang**2):
  XXX=             -1.1721  YYY=             -4.3285  ZZZ=             -0.0000  XYY=             -1.8350
  XXY=             -2.4625  XXZ=             -0.0000  XZZ=             -0.4739  YZZ=             -0.8414
  YYZ=             -0.0000  XYZ=              0.0000
 Hexadecapole moment (field-independent basis, Debye-Ang**3):
 XXXX=            -19.3143 YYYY=            -60.0245 ZZZZ=            -19.7219 XXXY=              0.7576
 XXXZ=             -0.0000 YYYX=              0.7503 YYYZ=             -0.0000 ZZZX=             -0.0000
 ZZZY=              0.0000 XXYY=            -12.0220 XXZZ=             -6.9043 YYZZ=            -13.6553
 XXYZ=              0.0000 YYXZ=              0.0000 ZZXY=             -0.8306
 N-N= 4.034988701812D+01 E-N=-3.521262580234D+02  KE= 1.149561419194D+02
 Symmetry A'   KE= 1.083370790488D+02
 Symmetry A"   KE= 6.619062870645D+00
 Calling FoFJK, ICntrl=      2127 FMM=F ISym2X=1 I1Cent= 0 IOpClX= 0 NMat=1 NMatS=1 NMatT=0.
 ***** Axes restored to original set *****
 -------------------------------------------------------------------
 Center     Atomic                   Forces (Hartrees/Bohr)
 Number     Number              X              Y              Z
 -------------------------------------------------------------------
      1        1          -0.002578482   -0.000000000    0.022151696
      2        8          -0.015837392    0.000000000   -0.022965596
      3        6           0.008422880   -0.000000000    0.000516304
      4        1          -0.001702736   -0.000000000   -0.004764567
      5        1           0.005847865   -0.004384089    0.002531082
      6        1           0.005847865    0.004384089    0.002531082
 -------------------------------------------------------------------
 Cartesian Forces:  Max     0.022965596 RMS     0.009104480

 GradGradGradGradGradGradGradGradGradGradGradGradGradGradGradGradGradGrad
 Berny optimization.
 Search for a local minimum.
 Step number   1 out of a maximum of   28
 All quantities printed in internal units (Hartrees-Bohrs-Radians)
 Second derivative matrix not updated -- first step.
 The second derivative matrix:
                          X1        Y1        Z1        X2        Y2
           X1           0.04553
           Y1          -0.00000   0.01587
           Z1          -0.00000   0.00000   0.49123
           X2          -0.05444   0.00000   0.00000   0.49231
           Y2           0.00000  -0.01902  -0.00000  -0.00000   0.05881
           Z2           0.03106  -0.00000  -0.49123   0.07554  -0.00000
           X3           0.00891  -0.00000  -0.00000  -0.43949   0.00000
           Y3          -0.00000   0.00297  -0.00000   0.00000  -0.05716
           Z3          -0.03106   0.00000   0.00000  -0.07125   0.00000
           X4           0.00000   0.00000  -0.00000   0.00798  -0.00000
           Y4           0.00000   0.00481  -0.00000  -0.00000  -0.00433
           Z4          -0.00000  -0.00000   0.00000  -0.00040   0.00000
           X5           0.00000   0.00117  -0.00000  -0.00318  -0.02330
           Y5          -0.00000  -0.00232   0.00000   0.00097   0.01085
           Z5          -0.00000  -0.00408   0.00000  -0.00194  -0.00511
           X6          -0.00000  -0.00117   0.00000  -0.00318   0.02330
           Y6          -0.00000  -0.00232   0.00000  -0.00097   0.01085
           Z6           0.00000   0.00408  -0.00000  -0.00194   0.00511
                          Z2        X3        Y3        Z3        X4
           Z2           0.57902
           X3          -0.10095   0.76034
           Y3           0.00000   0.00000   0.61939
           Z3          -0.10275   0.03621  -0.00000   0.63313
           X4          -0.02783  -0.07147   0.00000  -0.02004   0.05558
           Y4           0.00000   0.00000  -0.07729  -0.00000  -0.00000
           Z4           0.00141  -0.01295   0.00000  -0.32605   0.01375
           X5           0.01109  -0.12914  -0.09804   0.04307   0.00396
           Y5          -0.00339  -0.09226  -0.24395   0.06653   0.00476
           Z5           0.00677   0.03884   0.06256  -0.10217   0.01706
           X6           0.01109  -0.12914   0.09804   0.04307   0.00396
           Y6           0.00339   0.09226  -0.24395  -0.06653  -0.00476
           Z6           0.00677   0.03884  -0.06256  -0.10217   0.01706
                          Y4        Z4        X5        Y5        Z5
           Y4           0.05951
           Z4          -0.00000   0.32636
           X5           0.00628  -0.00020   0.11222
           Y5           0.00865  -0.00024   0.10021   0.23849
           Z5           0.02975  -0.00086  -0.04239  -0.07300   0.08722
           X6          -0.00628  -0.00020   0.01614  -0.01368  -0.01157
           Y6           0.00865   0.00024   0.01368  -0.01172  -0.01011
           Z6          -0.02975  -0.00086  -0.01157   0.01011   0.00904
                          X6        Y6        Z6
           X6           0.11222
           Y6          -0.10021   0.23849
           Z6          -0.04239   0.07300   0.08722
 ITU=  0
     Eigenvalues ---    0.02772   0.04416   0.08385   0.08962   0.12634
     Eigenvalues ---    0.12882   0.14893   0.33682   0.73742   0.77874
     Eigenvalues ---    0.86234   1.18636
 RFO step:  Lambda=-3.74066316D-03 EMin= 2.77244348D-02
 ClnCor:  largest displacement from symmetrization is 4.50D-14 for atom     6.
 Linear search not attempted -- first point.
 ClnCor:  largest displacement from symmetrization is 3.01D-15 for atom     1.
 B after Tr=    -0.006687   -0.000000   -0.008655
         Rot=    1.000000    0.000000    0.000003   -0.000000 Ang=   0.00 deg.
 Variable       Old X    -DE/DX   Delta X   Delta X   Delta X     New X
                                 (Linear)    (Quad)   (Total)
    X1       -0.00000  -0.00258   0.00000  -0.09553  -0.10222  -0.10222
    Y1        0.00000  -0.00000   0.00000   0.00000  -0.00000   0.00000
    Z1       -0.00000   0.02215   0.00000   0.03406   0.02540   0.02540
    X2       -0.00000  -0.01584   0.00000  -0.03113  -0.03783  -0.03783
    Y2        0.00000   0.00000   0.00000   0.00000  -0.00000   0.00000
    Z2        1.87461  -0.02297   0.00000  -0.01082  -0.01947   1.85514
    X3        2.53950   0.00842   0.00000   0.01153   0.00483   2.54433
    Y3       -0.00000  -0.00000   0.00000  -0.00000   0.00000  -0.00000
    Z3        2.60280   0.00052   0.00000  -0.02213  -0.03077   2.57203
    X4        2.64552  -0.00170   0.00000  -0.04808  -0.05480   2.59073
    Y4       -0.00000  -0.00000   0.00000   0.00000   0.00000  -0.00000
    Z4        4.69582  -0.00476   0.00000  -0.03346  -0.04210   4.65372
    X5        3.50012   0.00585   0.00000   0.10171   0.09501   3.59513
    Y5        1.73054  -0.00438   0.00000  -0.03066  -0.03066   1.69988
    Z5        1.89696   0.00253   0.00000   0.04210   0.03347   1.93043
    X6        3.50012   0.00585   0.00000   0.10171   0.09501   3.59513
    Y6       -1.73054   0.00438   0.00000   0.03066   0.03066  -1.69988
    Z6        1.89696   0.00253   0.00000   0.04210   0.03347   1.93043
         Item               Value     Threshold  Converged?
 Maximum Force            0.022966     0.000450     NO 
 RMS     Force            0.009104     0.000300     NO 
 Maximum Displacement     0.102222     0.001800     NO 
 RMS     Displacement     0.047624     0.001200     NO 
 Predicted change in Energy=-1.948029D-03
 GradGradGradGradGradGradGradGradGradGradGradGradGradGradGradGradGradGrad

                          Input orientation:                          
 ---------------------------------------------------------------------
 Center     Atomic      Atomic             Coordinates (Angstroms)
 Number     Number       Type             X           Y           Z
 ---------------------------------------------------------------------
      1          1           0       -0.054093    0.000000    0.013441
      2          8           0       -0.020018    0.000000    0.981696
      3          6           0        1.346399   -0.000000    1.361058
      4          1           0        1.370953   -0.000000    2.462643
      5          1           0        1.902462    0.899538    1.021540
      6          1           0        1.902462   -0.899538    1.021540
 ---------------------------------------------------------------------
                    Distance matrix (angstroms):
                    1          2          3          4          5
     1  H    0.000000
     2  O    0.968855   0.000000
     3  C    1.943567   1.418101   0.000000
     4  H    2.833610   2.031748   1.101858   0.000000
     5  H    2.377718   2.122896   1.110697   1.780013   0.000000
     6  H    2.377718   2.122896   1.110697   1.780013   1.799077
                    6
     6  H    0.000000
 Stoichiometry    CH4O
 Framework group  CS[SG(CH2O),X(H2)]
 Deg. of freedom     8
 Full point group                 CS      NOp   2
 Largest Abelian subgroup         CS      NOp   2
 Largest concise Abelian subgroup CS      NOp   2
                         Standard orientation:                         
 ---------------------------------------------------------------------
 Center     Atomic      Atomic             Coordinates (Angstroms)
 Number     Number       Type             X           Y           Z
 ---------------------------------------------------------------------
      1          1           0       -0.878252   -1.051819   -0.000000
      2          8           0        0.045599   -0.759964   -0.000000
      3          6           0        0.045599    0.658138    0.000000
      4          1           0        1.100466    0.976486    0.000000
      5          1           0       -0.430300    1.103108    0.899538
      6          1           0       -0.430300    1.103108   -0.899538
 ---------------------------------------------------------------------
 Rotational constants (GHZ):    126.4070220     24.6455321     23.7915741
 Standard basis: CC-pVDZ (5D, 7F)
 There are    35 symmetry adapted cartesian basis functions of A'  symmetry.
 There are    15 symmetry adapted cartesian basis functions of A"  symmetry.
 There are    33 symmetry adapted basis functions of A'  symmetry.
 There are    15 symmetry adapted basis functions of A"  symmetry.
    48 basis functions,    94 primitive gaussians,    50 cartesian basis functions
     9 alpha electrons        9 beta electrons
       nuclear repulsion energy        40.1061199079 Hartrees.
 NAtoms=    6 NActive=    6 NUniq=    5 SFac= 1.44D+00 NAtFMM=   60 NAOKFM=F Big=F
 Integral buffers will be    131072 words long.
 Raffenetti 2 integral format.
 Two-electron integral symmetry is turned on.
 One-electron integrals computed using PRISM.
 NBasis=    48 RedAO= T EigKep=  2.30D-02  NBF=    33    15
 NBsUse=    48 1.00D-06 EigRej= -1.00D+00 NBFU=    33    15
 Initial guess from the checkpoint file:  "/scratch/kmoore/Gau-12047.chk"
 B after Tr=     0.000000   -0.000000    0.000000
         Rot=    0.999994    0.000000    0.000000    0.003425 Ang=   0.39 deg.
 Initial guess orbital symmetries:
       Occupied  (A') (A') (A') (A') (A') (A") (A') (A') (A")
       Virtual   (A') (A') (A') (A') (A') (A') (A') (A') (A') (A')
                 (A') (A') (A') (A') (A') (A') (A') (A') (A') (A')
                 (A') (A') (A') (A') (A') (A') (A") (A") (A") (A")
                 (A") (A") (A") (A") (A") (A") (A") (A") (A")
 ExpMin= 1.22D-01 ExpMax= 1.17D+04 ExpMxC= 4.01D+02 IAcc=3 IRadAn=         5 AccDes= 0.00D+00
 Harris functional with IExCor=  402 and IRadAn=       5 diagonalized for initial guess.
 HarFok:  IExCor=  402 AccDes= 0.00D+00 IRadAn=         5 IDoV= 1 UseB2=F ITyADJ=14
 ICtDFT=  3500011 ScaDFX=  1.000000  1.000000  1.000000  1.000000
 FoFCou: FMM=F IPFlag=           0 FMFlag=      100000 FMFlg1=           0
         NFxFlg=           0 DoJE=T BraDBF=F KetDBF=T FulRan=T
         wScrn=  0.000000 ICntrl=     500 IOpCl=  0 I1Cent=   200000004 NGrid=           0
         NMat0=    1 NMatS0=      1 NMatT0=    0 NMatD0=    1 NMtDS0=    0 NMtDT0=    0
 Petite list used in FoFCou.
 Keep R1 ints in memory in symmetry-blocked form, NReq=1597446.
 Requested convergence on RMS density matrix=1.00D-08 within 128 cycles.
 Requested convergence on MAX density matrix=1.00D-06.
 Requested convergence on             energy=1.00D-06.
 No special actions if energy rises.
 Integral accuracy reduced to 1.0D-05 until final iterations.
 Initial convergence to 1.0D-05 achieved.  Increase integral accuracy.
 SCF Done:  E(RB3LYP) =  -115.722767287     A.U. after   10 cycles
            NFock= 10  Conv=0.21D-08     -V/T= 2.0067
 Calling FoFJK, ICntrl=      2127 FMM=F ISym2X=1 I1Cent= 0 IOpClX= 0 NMat=1 NMatS=1 NMatT=0.
 ***** Axes restored to original set *****
 -------------------------------------------------------------------
 Center     Atomic                   Forces (Hartrees/Bohr)
 Number     Number              X              Y              Z
 -------------------------------------------------------------------
      1        1           0.000093868   -0.000000000    0.001105354
      2        8           0.002493645   -0.000000000   -0.001501342
      3        6           0.000344017    0.000000000    0.002369090
      4        1          -0.000278845    0.000000000   -0.000215964
      5        1          -0.001326342   -0.000863123   -0.000878569
      6        1          -0.001326342    0.000863123   -0.000878569
 -------------------------------------------------------------------
 Cartesian Forces:  Max     0.002493645 RMS     0.001108311

 GradGradGradGradGradGradGradGradGradGradGradGradGradGradGradGradGradGrad
 Berny optimization.
 Search for a local minimum.
 Step number   2 out of a maximum of   28
 All quantities printed in internal units (Hartrees-Bohrs-Radians)
 Update second derivatives using D2CorN and points    1    2
 DE= -1.68D-03 DEPred=-1.95D-03 R= 8.60D-01
 TightC=F SS=  1.41D+00  RLast= 2.02D-01 DXNew= 5.0454D-01 6.0615D-01
 Trust test= 8.60D-01 RLast= 2.02D-01 DXMaxT set to 5.05D-01
 The second derivative matrix:
                          X1        Y1        Z1        X2        Y2
           X1           0.04671
           Y1           0.00000   0.01587
           Z1           0.00110  -0.00000   0.49061
           X2          -0.05089   0.00000  -0.00037   0.49477
           Y2          -0.00000  -0.01902   0.00000  -0.00000   0.05881
           Z2           0.02940  -0.00000  -0.49055   0.07552  -0.00000
           X3           0.00930  -0.00000  -0.00016  -0.43949   0.00000
           Y3           0.00000   0.00297  -0.00000   0.00000  -0.05716
           Z3          -0.02774   0.00000  -0.00040  -0.06909  -0.00000
           X4           0.00021   0.00000   0.00070   0.00972  -0.00000
           Y4           0.00000   0.00481  -0.00000  -0.00000  -0.00433
           Z4           0.00016   0.00000   0.00053   0.00093  -0.00000
           X5          -0.00266   0.00117  -0.00063  -0.00706  -0.02330
           Y5          -0.00076  -0.00232   0.00061   0.00162   0.01085
           Z5          -0.00146  -0.00408  -0.00009  -0.00350  -0.00511
           X6          -0.00266  -0.00117  -0.00063  -0.00706   0.02330
           Y6           0.00076  -0.00232  -0.00061  -0.00162   0.01085
           Z6          -0.00146   0.00408  -0.00009  -0.00350   0.00511
                          Z2        X3        Y3        Z3        X4
           Z2           0.57835
           X3          -0.10079   0.76030
           Y3           0.00000  -0.00000   0.61939
           Z3          -0.10268   0.03619   0.00000   0.63502
           X4          -0.02880  -0.07124   0.00000  -0.01839   0.05546
           Y4           0.00000   0.00000  -0.07729  -0.00000   0.00000
           Z4           0.00067  -0.01277   0.00000  -0.32478   0.01366
           X5           0.01233  -0.12943  -0.09804   0.03952   0.00292
           Y5          -0.00410  -0.09209  -0.24395   0.06719   0.00423
           Z5           0.00711   0.03876   0.06256  -0.10358   0.01642
           X6           0.01233  -0.12943   0.09804   0.03952   0.00292
           Y6           0.00410   0.09209  -0.24395  -0.06719  -0.00423
           Z6           0.00711   0.03876  -0.06256  -0.10358   0.01642
                          Y4        Z4        X5        Y5        Z5
           Y4           0.05951
           Z4           0.00000   0.32629
           X5           0.00628  -0.00099   0.11616
           Y5           0.00865  -0.00065   0.10045   0.23793
           Z5           0.02975  -0.00136  -0.04052  -0.07308   0.08805
           X6          -0.00628  -0.00099   0.02008  -0.01345  -0.00970
           Y6           0.00865   0.00065   0.01345  -0.01116  -0.01004
           Z6          -0.02975  -0.00136  -0.00970   0.01004   0.00987
                          X6        Y6        Z6
           X6           0.11616
           Y6          -0.10045   0.23793
           Z6          -0.04052   0.07308   0.08805
 ITU=  1  0
     Eigenvalues ---    0.02784   0.05269   0.08317   0.08935   0.12629
     Eigenvalues ---    0.12828   0.15363   0.33652   0.73736   0.78364
     Eigenvalues ---    0.86607   1.18533
 RFO step:  Lambda=-5.88815582D-05 EMin= 2.78434321D-02
 ClnCor:  largest displacement from symmetrization is 3.17D-14 for atom     6.
 Quartic linear search produced a step of -0.08810.
 ClnCor:  largest displacement from symmetrization is 6.66D-16 for atom     6.
 B after Tr=     0.001909    0.000000   -0.000350
         Rot=    1.000000   -0.000000    0.000231   -0.000000 Ang=   0.03 deg.
 Variable       Old X    -DE/DX   Delta X   Delta X   Delta X     New X
                                 (Linear)    (Quad)   (Total)
    X1       -0.10222   0.00009   0.00901   0.00317   0.01408  -0.08815
    Y1       -0.00000  -0.00000   0.00000   0.00000   0.00000  -0.00000
    Z1        0.02540   0.00111  -0.00224   0.00427   0.00164   0.02704
    X2       -0.03783   0.00249   0.00333   0.00294   0.00733  -0.03050
    Y2        0.00000  -0.00000  -0.00000  -0.00000  -0.00000   0.00000
    Z2        1.85514  -0.00150   0.00172  -0.00176  -0.00041   1.85473
    X3        2.54433   0.00034  -0.00043   0.00007   0.00036   2.54468
    Y3       -0.00000   0.00000   0.00000   0.00000  -0.00000  -0.00000
    Z3        2.57203   0.00237   0.00271   0.00465   0.00818   2.58021
    X4        2.59073  -0.00028   0.00483  -0.00215   0.00244   2.59316
    Y4        0.00000   0.00000  -0.00000   0.00000  -0.00000   0.00000
    Z4        4.65372  -0.00022   0.00371   0.00273   0.00729   4.66101
    X5        3.59513  -0.00133  -0.00837  -0.00475  -0.01210   3.58303
    Y5        1.69988  -0.00086   0.00270  -0.00596  -0.00325   1.69663
    Z5        1.93043  -0.00088  -0.00295  -0.00671  -0.00835   1.92208
    X6        3.59513  -0.00133  -0.00837  -0.00475  -0.01210   3.58303
    Y6       -1.69988   0.00086  -0.00270   0.00596   0.00325  -1.69663
    Z6        1.93043  -0.00088  -0.00295  -0.00671  -0.00835   1.92208
         Item               Value     Threshold  Converged?
 Maximum Force            0.002494     0.000450     NO 
 RMS     Force            0.001108     0.000300     NO 
 Maximum Displacement     0.014076     0.001800     NO 
 RMS     Displacement     0.006808     0.001200     NO 
 Predicted change in Energy=-4.637950D-05
 GradGradGradGradGradGradGradGradGradGradGradGradGradGradGradGradGradGrad

                          Input orientation:                          
 ---------------------------------------------------------------------
 Center     Atomic      Atomic             Coordinates (Angstroms)
 Number     Number       Type             X           Y           Z
 ---------------------------------------------------------------------
      1          1           0       -0.046645   -0.000000    0.014308
      2          8           0       -0.016141    0.000000    0.981480
      3          6           0        1.346589   -0.000000    1.365389
      4          1           0        1.372242    0.000000    2.466499
      5          1           0        1.896060    0.897817    1.017121
      6          1           0        1.896060   -0.897817    1.017121
 ---------------------------------------------------------------------
                    Distance matrix (angstroms):
                    1          2          3          4          5
     1  H    0.000000
     2  O    0.967653   0.000000
     3  C    1.940753   1.415775   0.000000
     4  H    2.833105   2.032951   1.101409   0.000000
     5  H    2.363432   2.112784   1.108731   1.783580   0.000000
     6  H    2.363432   2.112784   1.108731   1.783580   1.795633
                    6
     6  H    0.000000
 Stoichiometry    CH4O
 Framework group  CS[SG(CH2O),X(H2)]
 Deg. of freedom     8
 Full point group                 CS      NOp   2
 Largest Abelian subgroup         CS      NOp   2
 Largest concise Abelian subgroup CS      NOp   2
                         Standard orientation:                         
 ---------------------------------------------------------------------
 Center     Atomic      Atomic             Coordinates (Angstroms)
 Number     Number       Type             X           Y           Z
 ---------------------------------------------------------------------
      1          1           0       -0.876097   -1.049542    0.000000
      2          8           0        0.046567   -0.757918    0.000000
      3          6           0        0.046567    0.657857    0.000000
      4          1           0        1.099465    0.981133    0.000000
      5          1           0       -0.437651    1.092303    0.897817
      6          1           0       -0.437651    1.092303   -0.897817
 ---------------------------------------------------------------------
 Rotational constants (GHZ):    126.3048074     24.7694372     23.8892651
 Standard basis: CC-pVDZ (5D, 7F)
 There are    35 symmetry adapted cartesian basis functions of A'  symmetry.
 There are    15 symmetry adapted cartesian basis functions of A"  symmetry.
 There are    33 symmetry adapted basis functions of A'  symmetry.
 There are    15 symmetry adapted basis functions of A"  symmetry.
    48 basis functions,    94 primitive gaussians,    50 cartesian basis functions
     9 alpha electrons        9 beta electrons
       nuclear repulsion energy        40.1746102437 Hartrees.
 NAtoms=    6 NActive=    6 NUniq=    5 SFac= 1.44D+00 NAtFMM=   60 NAOKFM=F Big=F
 Integral buffers will be    131072 words long.
 Raffenetti 2 integral format.
 Two-electron integral symmetry is turned on.
 One-electron integrals computed using PRISM.
 NBasis=    48 RedAO= T EigKep=  2.28D-02  NBF=    33    15
 NBsUse=    48 1.00D-06 EigRej= -1.00D+00 NBFU=    33    15
 Initial guess from the checkpoint file:  "/scratch/kmoore/Gau-12047.chk"
 B after Tr=    -0.000000   -0.000000    0.000000
         Rot=    0.999999   -0.000000   -0.000000   -0.001230 Ang=  -0.14 deg.
 Initial guess orbital symmetries:
       Occupied  (A') (A') (A') (A') (A') (A") (A') (A') (A")
       Virtual   (A') (A') (A') (A') (A') (A') (A') (A') (A') (A')
                 (A') (A') (A') (A') (A') (A') (A') (A') (A') (A')
                 (A') (A') (A') (A') (A') (A') (A") (A") (A") (A")
                 (A") (A") (A") (A") (A") (A") (A") (A") (A")
 Keep R1 ints in memory in symmetry-blocked form, NReq=1597446.
 Requested convergence on RMS density matrix=1.00D-08 within 128 cycles.
 Requested convergence on MAX density matrix=1.00D-06.
 Requested convergence on             energy=1.00D-06.
 No special actions if energy rises.
 SCF Done:  E(RB3LYP) =  -115.722814349     A.U. after    8 cycles
            NFock=  8  Conv=0.21D-08     -V/T= 2.0066
 Calling FoFJK, ICntrl=      2127 FMM=F ISym2X=1 I1Cent= 0 IOpClX= 0 NMat=1 NMatS=1 NMatT=0.
 ***** Axes restored to original set *****
 -------------------------------------------------------------------
 Center     Atomic                   Forces (Hartrees/Bohr)
 Number     Number              X              Y              Z
 -------------------------------------------------------------------
      1        1           0.000025442   -0.000000000    0.000113773
      2        8          -0.000106667    0.000000000   -0.000091954
      3        6           0.000001823    0.000000000    0.000520687
      4        1          -0.000152460    0.000000000   -0.000170512
      5        1           0.000115931    0.000048493   -0.000185997
      6        1           0.000115931   -0.000048493   -0.000185997
 -------------------------------------------------------------------
 Cartesian Forces:  Max     0.000520687 RMS     0.000159450

 GradGradGradGradGradGradGradGradGradGradGradGradGradGradGradGradGradGrad
 Berny optimization.
 Search for a local minimum.
 Step number   3 out of a maximum of   28
 All quantities printed in internal units (Hartrees-Bohrs-Radians)
 Update second derivatives using D2CorN and points    1    2    3
 DE= -4.71D-05 DEPred=-4.64D-05 R= 1.01D+00
 TightC=F SS=  1.41D+00  RLast= 2.89D-02 DXNew= 8.4853D-01 8.6650D-02
 Trust test= 1.01D+00 RLast= 2.89D-02 DXMaxT set to 5.05D-01
 The second derivative matrix:
                          X1        Y1        Z1        X2        Y2
           X1           0.04426
           Y1           0.00000   0.01587
           Z1           0.00148  -0.00000   0.48987
           X2          -0.04914   0.00000  -0.00062   0.49674
           Y2          -0.00000  -0.01902  -0.00000  -0.00000   0.05881
           Z2           0.02853   0.00000  -0.48992   0.07556   0.00000
           X3           0.00953  -0.00000  -0.00033  -0.43947  -0.00000
           Y3          -0.00000   0.00297  -0.00000  -0.00000  -0.05716
           Z3          -0.03078  -0.00000  -0.00169  -0.06980  -0.00000
           X4           0.00007   0.00000   0.00148   0.01090  -0.00000
           Y4           0.00000   0.00481   0.00000  -0.00000  -0.00433
           Z4           0.00032   0.00000   0.00094   0.00247  -0.00000
           X5          -0.00236   0.00117  -0.00101  -0.00951  -0.02330
           Y5          -0.00211  -0.00232   0.00124   0.00127   0.01085
           Z5           0.00022  -0.00408   0.00041  -0.00380  -0.00511
           X6          -0.00236  -0.00117  -0.00101  -0.00951   0.02330
           Y6           0.00211  -0.00232  -0.00124  -0.00127   0.01085
           Z6           0.00022   0.00408   0.00041  -0.00380   0.00511
                          Z2        X3        Y3        Z3        X4
           Z2           0.57781
           X3          -0.10065   0.76026
           Y3           0.00000  -0.00000   0.61939
           Z3          -0.10217   0.03599  -0.00000   0.63079
           X4          -0.02960  -0.07102  -0.00000  -0.01757   0.05498
           Y4           0.00000   0.00000  -0.07729   0.00000  -0.00000
           Z4           0.00022  -0.01262  -0.00000  -0.32568   0.01375
           X5           0.01308  -0.12965  -0.09804   0.04108   0.00253
           Y5          -0.00475  -0.09196  -0.24395   0.06846   0.00324
           Z5           0.00703   0.03880   0.06256  -0.10062   0.01597
           X6           0.01308  -0.12965   0.09804   0.04108   0.00253
           Y6           0.00475   0.09196  -0.24395  -0.06846  -0.00324
           Z6           0.00703   0.03880  -0.06256  -0.10062   0.01597
                          Y4        Z4        X5        Y5        Z5
           Y4           0.05951
           Z4          -0.00000   0.32721
           X5           0.00628  -0.00196   0.11753
           Y5           0.00865  -0.00183   0.10172   0.23776
           Z5           0.02975  -0.00134  -0.04100  -0.07312   0.08635
           X6          -0.00628  -0.00196   0.02145  -0.01217  -0.01019
           Y6           0.00865   0.00183   0.01217  -0.01099  -0.00999
           Z6          -0.02975  -0.00134  -0.01019   0.00999   0.00817
                          X6        Y6        Z6
           X6           0.11753
           Y6          -0.10172   0.23776
           Z6          -0.04100   0.07312   0.08635
 ITU=  1  1  0
     Eigenvalues ---    0.02784   0.04905   0.08239   0.08935   0.12494
     Eigenvalues ---    0.12831   0.15387   0.33756   0.73792   0.78288
     Eigenvalues ---    0.86322   1.18538
 RFO step:  Lambda=-1.05772463D-06 EMin= 2.78353365D-02
 ClnCor:  largest displacement from symmetrization is 5.94D-14 for atom     6.
 Quartic linear search produced a step of  0.02726.
 ClnCor:  largest displacement from symmetrization is 5.18D-15 for atom     4.
 B after Tr=    -0.000134    0.000000    0.000240
         Rot=    1.000000    0.000000   -0.000020    0.000000 Ang=  -0.00 deg.
 Variable       Old X    -DE/DX   Delta X   Delta X   Delta X     New X
                                 (Linear)    (Quad)   (Total)
    X1       -0.08815   0.00003   0.00038   0.00032   0.00057  -0.08758
    Y1       -0.00000  -0.00000   0.00000   0.00000   0.00000  -0.00000
    Z1        0.02704   0.00011   0.00004   0.00048   0.00077   0.02780
    X2       -0.03050  -0.00011   0.00020  -0.00021  -0.00007  -0.03057
    Y2       -0.00000   0.00000  -0.00000   0.00000   0.00000  -0.00000
    Z2        1.85473  -0.00009  -0.00001   0.00028   0.00051   1.85524
    X3        2.54468   0.00000   0.00001   0.00006   0.00004   2.54473
    Y3       -0.00000   0.00000   0.00000   0.00000  -0.00000  -0.00000
    Z3        2.58021   0.00052   0.00022   0.00030   0.00066   2.58087
    X4        2.59316  -0.00015   0.00007  -0.00176  -0.00165   2.59152
    Y4       -0.00000   0.00000  -0.00000   0.00000   0.00000  -0.00000
    Z4        4.66101  -0.00017   0.00020  -0.00015   0.00019   4.66120
    X5        3.58303   0.00012  -0.00033   0.00094   0.00055   3.58359
    Y5        1.69663   0.00005  -0.00009  -0.00031  -0.00040   1.69623
    Z5        1.92208  -0.00019  -0.00023  -0.00094  -0.00107   1.92101
    X6        3.58303   0.00012  -0.00033   0.00094   0.00055   3.58359
    Y6       -1.69663  -0.00005   0.00009   0.00031   0.00040  -1.69623
    Z6        1.92208  -0.00019  -0.00023  -0.00094  -0.00107   1.92101
         Item               Value     Threshold  Converged?
 Maximum Force            0.000521     0.000450     NO 
 RMS     Force            0.000159     0.000300     YES
 Maximum Displacement     0.001645     0.001800     YES
 RMS     Displacement     0.000648     0.001200     YES
 Predicted change in Energy=-5.474528D-07
 GradGradGradGradGradGradGradGradGradGradGradGradGradGradGradGradGradGrad

                          Input orientation:                          
 ---------------------------------------------------------------------
 Center     Atomic      Atomic             Coordinates (Angstroms)
 Number     Number       Type             X           Y           Z
 ---------------------------------------------------------------------
      1          1           0       -0.046344   -0.000000    0.014714
      2          8           0       -0.016178   -0.000000    0.981753
      3          6           0        1.346611   -0.000000    1.365739
      4          1           0        1.371372   -0.000000    2.466599
      5          1           0        1.896352    0.897605    1.016557
      6          1           0        1.896352   -0.897605    1.016557
 ---------------------------------------------------------------------
                    Distance matrix (angstroms):
                    1          2          3          4          5
     1  H    0.000000
     2  O    0.967509   0.000000
     3  C    1.940514   1.415853   0.000000
     4  H    2.832254   2.032256   1.101138   0.000000
     5  H    2.362934   2.112979   1.108981   1.784355   0.000000
     6  H    2.362934   2.112979   1.108981   1.784355   1.795210
                    6
     6  H    0.000000
 Stoichiometry    CH4O
 Framework group  CS[SG(CH2O),X(H2)]
 Deg. of freedom     8
 Full point group                 CS      NOp   2
 Largest Abelian subgroup         CS      NOp   2
 Largest concise Abelian subgroup CS      NOp   2
                         Standard orientation:                         
 ---------------------------------------------------------------------
 Center     Atomic      Atomic             Coordinates (Angstroms)
 Number     Number       Type             X           Y           Z
 ---------------------------------------------------------------------
      1          1           0       -0.875942   -1.049226    0.000000
      2          8           0        0.046673   -0.757925    0.000000
      3          6           0        0.046673    0.657929   -0.000000
      4          1           0        1.099559    0.980320   -0.000000
      5          1           0       -0.438516    1.092366    0.897605
      6          1           0       -0.438516    1.092366   -0.897605
 ---------------------------------------------------------------------
 Rotational constants (GHZ):    126.2640045     24.7716157     23.8881032
 Standard basis: CC-pVDZ (5D, 7F)
 There are    35 symmetry adapted cartesian basis functions of A'  symmetry.
 There are    15 symmetry adapted cartesian basis functions of A"  symmetry.
 There are    33 symmetry adapted basis functions of A'  symmetry.
 There are    15 symmetry adapted basis functions of A"  symmetry.
    48 basis functions,    94 primitive gaussians,    50 cartesian basis functions
     9 alpha electrons        9 beta electrons
       nuclear repulsion energy        40.1741913171 Hartrees.
 NAtoms=    6 NActive=    6 NUniq=    5 SFac= 1.44D+00 NAtFMM=   60 NAOKFM=F Big=F
 Integral buffers will be    131072 words long.
 Raffenetti 2 integral format.
 Two-electron integral symmetry is turned on.
 One-electron integrals computed using PRISM.
 NBasis=    48 RedAO= T EigKep=  2.28D-02  NBF=    33    15
 NBsUse=    48 1.00D-06 EigRej= -1.00D+00 NBFU=    33    15
 Initial guess from the checkpoint file:  "/scratch/kmoore/Gau-12047.chk"
 B after Tr=     0.000000   -0.000000    0.000000
         Rot=    1.000000    0.000000    0.000000   -0.000035 Ang=  -0.00 deg.
 Initial guess orbital symmetries:
       Occupied  (A') (A') (A') (A') (A') (A") (A') (A') (A")
       Virtual   (A') (A') (A') (A') (A') (A') (A') (A') (A') (A')
                 (A') (A') (A') (A') (A') (A') (A') (A') (A') (A')
                 (A') (A') (A') (A') (A') (A') (A") (A") (A") (A")
                 (A") (A") (A") (A") (A") (A") (A") (A") (A")
 Keep R1 ints in memory in symmetry-blocked form, NReq=1597446.
 Requested convergence on RMS density matrix=1.00D-08 within 128 cycles.
 Requested convergence on MAX density matrix=1.00D-06.
 Requested convergence on             energy=1.00D-06.
 No special actions if energy rises.
 SCF Done:  E(RB3LYP) =  -115.722814984     A.U. after    7 cycles
            NFock=  7  Conv=0.13D-08     -V/T= 2.0066
 Calling FoFJK, ICntrl=      2127 FMM=F ISym2X=1 I1Cent= 0 IOpClX= 0 NMat=1 NMatS=1 NMatT=0.
 ***** Axes restored to original set *****
 -------------------------------------------------------------------
 Center     Atomic                   Forces (Hartrees/Bohr)
 Number     Number              X              Y              Z
 -------------------------------------------------------------------
      1        1          -0.000021854   -0.000000000   -0.000032869
      2        8          -0.000050130    0.000000000   -0.000016215
      3        6           0.000048732   -0.000000000    0.000153352
      4        1          -0.000006916    0.000000000   -0.000038356
      5        1           0.000015084   -0.000007839   -0.000032956
      6        1           0.000015084    0.000007839   -0.000032956
 -------------------------------------------------------------------
 Cartesian Forces:  Max     0.000153352 RMS     0.000043776

 GradGradGradGradGradGradGradGradGradGradGradGradGradGradGradGradGradGrad
 Berny optimization.
 Search for a local minimum.
 Step number   4 out of a maximum of   28
 All quantities printed in internal units (Hartrees-Bohrs-Radians)
 Update second derivatives using D2CorN and points    1    2    3    4
 DE= -6.34D-07 DEPred=-5.47D-07 R= 1.16D+00
 Trust test= 1.16D+00 RLast= 2.75D-03 DXMaxT set to 5.05D-01
 The second derivative matrix:
                          X1        Y1        Z1        X2        Y2
           X1           0.04599
           Y1          -0.00000   0.01587
           Z1           0.00445  -0.00000   0.49269
           X2          -0.04624  -0.00000   0.00220   0.49729
           Y2           0.00000  -0.01902   0.00000  -0.00000   0.05881
           Z2           0.02953  -0.00000  -0.48792   0.07736   0.00000
           X3           0.00753   0.00000  -0.00284  -0.43925  -0.00000
           Y3           0.00000   0.00297   0.00000  -0.00000  -0.05716
           Z3          -0.03664   0.00000  -0.00919  -0.06741   0.00000
           X4          -0.00278   0.00000  -0.00133   0.00528  -0.00000
           Y4           0.00000   0.00481   0.00000   0.00000  -0.00433
           Z4           0.00255  -0.00000   0.00402   0.00388   0.00000
           X5          -0.00225   0.00117  -0.00124  -0.00854  -0.02330
           Y5          -0.00310  -0.00232   0.00076  -0.00060   0.01085
           Z5           0.00005  -0.00408   0.00020  -0.00801  -0.00511
           X6          -0.00225  -0.00117  -0.00124  -0.00854   0.02330
           Y6           0.00310  -0.00232  -0.00076   0.00060   0.01085
           Z6           0.00005   0.00408   0.00020  -0.00801   0.00511
                          Z2        X3        Y3        Z3        X4
           Z2           0.57809
           X3          -0.10214   0.75994
           Y3           0.00000   0.00000   0.61939
           Z3          -0.10588   0.03296   0.00000   0.61426
           X4          -0.03108  -0.06568  -0.00000  -0.00017   0.05408
           Y4           0.00000  -0.00000  -0.07729  -0.00000   0.00000
           Z4           0.00144  -0.01317   0.00000  -0.32627   0.00904
           X5           0.01316  -0.13127  -0.09804   0.03563   0.00455
           Y5          -0.00528  -0.09050  -0.24395   0.07443   0.00246
           Z5           0.00714   0.04260   0.06256  -0.08646   0.01177
           X6           0.01316  -0.13127   0.09804   0.03563   0.00455
           Y6           0.00528   0.09050  -0.24395  -0.07443  -0.00246
           Z6           0.00714   0.04260  -0.06256  -0.08646   0.01177
                          Y4        Z4        X5        Y5        Z5
           Y4           0.05951
           Z4           0.00000   0.32891
           X5           0.00628  -0.00115   0.11680
           Y5           0.00865  -0.00379   0.10281   0.23784
           Z5           0.02975  -0.00405  -0.03861  -0.07462   0.08067
           X6          -0.00628  -0.00115   0.02072  -0.01108  -0.00780
           Y6           0.00865   0.00379   0.01108  -0.01107  -0.00849
           Z6          -0.02975  -0.00405  -0.00780   0.00849   0.00250
                          X6        Y6        Z6
           X6           0.11680
           Y6          -0.10281   0.23784
           Z6          -0.03861   0.07462   0.08067
 ITU=  0  1  1  0
     Eigenvalues ---    0.02784   0.04876   0.08226   0.08935   0.11756
     Eigenvalues ---    0.12830   0.15251   0.33749   0.73386   0.78287
     Eigenvalues ---    0.85888   1.18270
 RFO step:  Lambda=-5.55482619D-08 EMin= 2.78355808D-02
 ClnCor:  largest displacement from symmetrization is 5.99D-14 for atom     6.
 Quartic linear search produced a step of  0.16622.
 ClnCor:  largest displacement from symmetrization is 1.66D-15 for atom     6.
 B after Tr=     0.000052    0.000000   -0.000040
         Rot=    1.000000   -0.000000    0.000012   -0.000000 Ang=   0.00 deg.
 Variable       Old X    -DE/DX   Delta X   Delta X   Delta X     New X
                                 (Linear)    (Quad)   (Total)
    X1       -0.08758  -0.00002   0.00009  -0.00042  -0.00028  -0.08786
    Y1       -0.00000  -0.00000  -0.00000   0.00000   0.00000  -0.00000
    Z1        0.02780  -0.00003   0.00013  -0.00024  -0.00015   0.02765
    X2       -0.03057  -0.00005  -0.00001  -0.00003  -0.00004  -0.03061
    Y2        0.00000   0.00000   0.00000  -0.00000  -0.00000   0.00000
    Z2        1.85524  -0.00002   0.00009  -0.00013  -0.00009   1.85516
    X3        2.54473   0.00005   0.00001   0.00005   0.00005   2.54477
    Y3       -0.00000  -0.00000  -0.00000   0.00000   0.00000  -0.00000
    Z3        2.58087   0.00015   0.00011   0.00019   0.00032   2.58120
    X4        2.59152  -0.00001  -0.00027   0.00025  -0.00008   2.59144
    Y4        0.00000   0.00000   0.00000  -0.00000  -0.00000   0.00000
    Z4        4.66120  -0.00004   0.00003   0.00014   0.00019   4.66139
    X5        3.58359   0.00002   0.00009   0.00007   0.00017   3.58376
    Y5        1.69623  -0.00001  -0.00007  -0.00015  -0.00021   1.69602
    Z5        1.92101  -0.00003  -0.00018  -0.00000  -0.00014   1.92087
    X6        3.58359   0.00002   0.00009   0.00007   0.00017   3.58376
    Y6       -1.69623   0.00001   0.00007   0.00015   0.00021  -1.69602
    Z6        1.92101  -0.00003  -0.00018  -0.00000  -0.00014   1.92087
         Item               Value     Threshold  Converged?
 Maximum Force            0.000153     0.000450     YES
 RMS     Force            0.000044     0.000300     YES
 Maximum Displacement     0.000323     0.001800     YES
 RMS     Displacement     0.000158     0.001200     YES
 Predicted change in Energy=-3.598351D-08
 Optimization completed.
    -- Stationary point found.
 GradGradGradGradGradGradGradGradGradGradGradGradGradGradGradGradGradGrad

                          Input orientation:                          
 ---------------------------------------------------------------------
 Center     Atomic      Atomic             Coordinates (Angstroms)
 Number     Number       Type             X           Y           Z
 ---------------------------------------------------------------------
      1          1           0       -0.046344   -0.000000    0.014714
      2          8           0       -0.016178    0.000000    0.981753
      3          6           0        1.346611   -0.000000    1.365739
      4          1           0        1.371372    0.000000    2.466599
      5          1           0        1.896352    0.897605    1.016557
      6          1           0        1.896352   -0.897605    1.016557
 ---------------------------------------------------------------------
                    Distance matrix (angstroms):
                    1          2          3          4          5
     1  H    0.000000
     2  O    0.967509   0.000000
     3  C    1.940514   1.415853   0.000000
     4  H    2.832254   2.032256   1.101138   0.000000
     5  H    2.362934   2.112979   1.108981   1.784355   0.000000
     6  H    2.362934   2.112979   1.108981   1.784355   1.795210
                    6
     6  H    0.000000
 Stoichiometry    CH4O
 Framework group  CS[SG(CH2O),X(H2)]
 Deg. of freedom     8
 Full point group                 CS      NOp   2
 Largest Abelian subgroup         CS      NOp   2
 Largest concise Abelian subgroup CS      NOp   2
                         Standard orientation:                         
 ---------------------------------------------------------------------
 Center     Atomic      Atomic             Coordinates (Angstroms)
 Number     Number       Type             X           Y           Z
 ---------------------------------------------------------------------
      1          1           0       -0.875942   -1.049226   -0.000000
      2          8           0        0.046673   -0.757925   -0.000000
      3          6           0        0.046673    0.657929    0.000000
      4          1           0        1.099559    0.980320    0.000000
      5          1           0       -0.438516    1.092366    0.897605
      6          1           0       -0.438516    1.092366   -0.897605
 ---------------------------------------------------------------------
 Rotational constants (GHZ):    126.2640045     24.7716157     23.8881032

 **********************************************************************

            Population analysis using the SCF density.

 **********************************************************************

 Orbital symmetries:
       Occupied  (A') (A') (A') (A') (A') (A") (A') (A') (A")
       Virtual   (A') (A') (A') (A") (A') (A') (A") (A') (A') (A")
                 (A') (A') (A') (A") (A') (A') (A") (A') (A") (A')
                 (A") (A") (A') (A') (A") (A') (A') (A') (A") (A')
                 (A') (A") (A') (A') (A") (A") (A') (A') (A')
 The electronic state is 1-A'.
 Alpha  occ. eigenvalues --  -19.13029 -10.22693  -1.01115  -0.67527  -0.50020
 Alpha  occ. eigenvalues --   -0.43123  -0.41753  -0.32829  -0.26445
 Alpha virt. eigenvalues --    0.05515   0.09224   0.13452   0.13661   0.19711
 Alpha virt. eigenvalues --    0.44468   0.46043   0.48780   0.57145   0.62592
 Alpha virt. eigenvalues --    0.64886   0.65121   0.86777   0.89768   0.95484
 Alpha virt. eigenvalues --    1.00920   1.06282   1.20042   1.34149   1.39083
 Alpha virt. eigenvalues --    1.41052   1.59449   1.61682   1.64670   1.65452
 Alpha virt. eigenvalues --    1.73026   1.84601   1.98733   2.06422   2.08749
 Alpha virt. eigenvalues --    2.16428   2.38144   2.39233   2.41295   2.93172
 Alpha virt. eigenvalues --    3.01532   3.05634   3.20037   3.66866
          Condensed to atoms (all electrons):
               1          2          3          4          5          6
     1  H    0.567745   0.345539  -0.047863   0.009344  -0.006572  -0.006572
     2  O    0.345539   7.649694   0.372265  -0.025436  -0.032316  -0.032316
     3  C   -0.047863   0.372265   4.410303   0.397876   0.386911   0.386911
     4  H    0.009344  -0.025436   0.397876   0.657032  -0.035424  -0.035424
     5  H   -0.006572  -0.032316   0.386911  -0.035424   0.729588  -0.048900
     6  H   -0.006572  -0.032316   0.386911  -0.035424  -0.048900   0.729588
 Mulliken charges:
               1
     1  H    0.138378
     2  O   -0.277430
     3  C    0.093597
     4  H    0.032031
     5  H    0.006712
     6  H    0.006712
 Sum of Mulliken charges =  -0.00000
 Mulliken charges with hydrogens summed into heavy atoms:
               1
     2  O   -0.139053
     3  C    0.139053
 Electronic spatial extent (au):  <R**2>=             84.2619
 Charge=             -0.0000 electrons
 Dipole moment (field-independent basis, Debye):
    X=             -1.3370    Y=              0.7749    Z=              0.0000  Tot=              1.5453
 Quadrupole moment (field-independent basis, Debye-Ang):
   XX=            -11.6295   YY=            -13.0190   ZZ=            -13.5451
   XY=              1.9914   XZ=              0.0000   YZ=              0.0000
 Traceless Quadrupole moment (field-independent basis, Debye-Ang):
   XX=              1.1017   YY=             -0.2878   ZZ=             -0.8139
   XY=              1.9914   XZ=              0.0000   YZ=              0.0000
 Octapole moment (field-independent basis, Debye-Ang**2):
  XXX=             -1.0797  YYY=             -4.3635  ZZZ=              0.0000  XYY=             -2.0350
  XXY=             -2.4419  XXZ=             -0.0000  XZZ=             -0.4576  YZZ=             -0.8503
  YYZ=              0.0000  XYZ=              0.0000
 Hexadecapole moment (field-independent basis, Debye-Ang**3):
 XXXX=            -19.0419 YYYY=            -60.9414 ZZZZ=            -19.5318 XXXY=              0.8404
 XXXZ=              0.0000 YYYX=              0.8908 YYYZ=              0.0000 ZZZX=             -0.0000
 ZZZY=             -0.0000 XXYY=            -12.2168 XXZZ=             -6.8117 YYZZ=            -13.7668
 XXYZ=             -0.0000 YYXZ=              0.0000 ZZXY=             -0.7705
 N-N= 4.017419131709D+01 E-N=-3.517733505238D+02  KE= 1.149670708313D+02
 Symmetry A'   KE= 1.083588886929D+02
 Symmetry A"   KE= 6.608182138391D+00
 1\1\GINC-B450\FOpt\RB3LYP\CC-pVDZ\C1H4O1\KMOORE\27-Jan-2019\0\\#B3LYP/
 cc-pVDZ Integral(Grid=SuperFineGrid) Opt=(Cartesian) Freq\\Optimizatio
 n\\0,1\H,-0.0463444565,0.,0.0147137552\O,-0.0161782224,0.,0.9817528198
 \C,1.346611164,0.,1.3657392025\H,1.3713717682,0.,2.4665991705\H,1.8963
 523733,0.8976050728,1.016556526\H,1.8963523733,-0.8976050728,1.0165565
 26\\Version=ES64L-G09RevE.01\State=1-A'\HF=-115.722815\RMSD=1.289e-09\
 RMSF=4.378e-05\Dipole=0.4360795,0.,-0.4236106\Quadrupole=-0.9109665,-0
 .6051206,1.5160871,0.,0.9931149,0.\PG=CS [SG(C1H2O1),X(H2)]\\@


       THE DEATH-KNELL OF THE ATOM

 SO THE ATOMS IN TURN, WE NOW CLEARLY DISCERN,
 FLY TO BITS WITH THE UTMOST FACILITY;
 THEY WEND ON THEIR WAY, AND, IN SPLITTING, DISPLAY
 AN ABSOLUTE LACK OF STABILITY.

          SIR WM. RAMSAY, 1905
 Job cpu time:       0 days  0 hours  1 minutes 15.1 seconds.
 File lengths (MBytes):  RWF=      5 Int=      0 D2E=      0 Chk=      1 Scr=      1
 Normal termination of Gaussian 09 at Sun Jan 27 13:19:53 2019.
 Link1:  Proceeding to internal job step number  2.
 -------------------------------------------------------------------
 #N Geom=AllCheck Guess=TCheck SCRF=Check GenChk RB3LYP/CC-pVDZ Freq
 -------------------------------------------------------------------
 1/10=4,29=7,30=1,38=1,40=1/1,3;
 2/12=2,40=1/2;
 3/5=16,11=2,14=-4,16=1,25=1,30=1,70=2,71=2,74=-5,75=-7,116=1,140=1/1,2,3;
 4/5=101/1;
 5/5=2,38=6,98=1/2;
 8/6=4,10=90,11=11/1;
 11/6=1,8=1,9=11,15=111,16=1/1,2,10;
 10/6=1/2;
 6/7=2,8=2,9=2,10=2,18=1,28=1/1;
 7/8=1,10=1,25=1/1,2,3,16;
 1/10=4,30=1/3;
 99//99;
 Structure from the checkpoint file:  "/scratch/kmoore/Gau-12047.chk"
 ------------
 Optimization
 ------------
 Charge =  0 Multiplicity = 1
 No Z-Matrix found in file; cartesian coordinates used.
  H                                                -0.046344456505     -0.000000000000      0.014713755160
  O                                                -0.016178222392      0.000000000000      0.981752819761
  C                                                 1.346611163987     -0.000000000000      1.365739202507
  H                                                 1.371371768219      0.000000000000      2.466599170481
  H                                                 1.896352373345      0.897605072850      1.016556526045
  H                                                 1.896352373345     -0.897605072850      1.016556526045
 Recover connectivity data from disk.

 GradGradGradGradGradGradGradGradGradGradGradGradGradGradGradGradGradGrad
 Berny optimization.
 Initialization pass.
 Trust Radius=3.00D-01 FncErr=1.00D-07 GrdErr=1.00D-07
 Number of steps in this run=      2 maximum allowed number of steps=      2.
 GradGradGradGradGradGradGradGradGradGradGradGradGradGradGradGradGradGrad

                          Input orientation:                          
 ---------------------------------------------------------------------
 Center     Atomic      Atomic             Coordinates (Angstroms)
 Number     Number       Type             X           Y           Z
 ---------------------------------------------------------------------
      1          1           0       -0.046344   -0.000000    0.014714
      2          8           0       -0.016178    0.000000    0.981753
      3          6           0        1.346611   -0.000000    1.365739
      4          1           0        1.371372    0.000000    2.466599
      5          1           0        1.896352    0.897605    1.016557
      6          1           0        1.896352   -0.897605    1.016557
 ---------------------------------------------------------------------
                    Distance matrix (angstroms):
                    1          2          3          4          5
     1  H    0.000000
     2  O    0.967509   0.000000
     3  C    1.940514   1.415853   0.000000
     4  H    2.832254   2.032256   1.101138   0.000000
     5  H    2.362934   2.112979   1.108981   1.784355   0.000000
     6  H    2.362934   2.112979   1.108981   1.784355   1.795210
                    6
     6  H    0.000000
 Stoichiometry    CH4O
 Framework group  CS[SG(CH2O),X(H2)]
 Deg. of freedom     8
 Full point group                 CS      NOp   2
 Largest Abelian subgroup         CS      NOp   2
 Largest concise Abelian subgroup CS      NOp   2
                         Standard orientation:                         
 ---------------------------------------------------------------------
 Center     Atomic      Atomic             Coordinates (Angstroms)
 Number     Number       Type             X           Y           Z
 ---------------------------------------------------------------------
      1          1           0       -0.875942   -1.049226   -0.000000
      2          8           0        0.046673   -0.757925   -0.000000
      3          6           0        0.046673    0.657929    0.000000
      4          1           0        1.099559    0.980320    0.000000
      5          1           0       -0.438516    1.092366    0.897605
      6          1           0       -0.438516    1.092366   -0.897605
 ---------------------------------------------------------------------
 Rotational constants (GHZ):    126.2640045     24.7716157     23.8881032
 Standard basis: CC-pVDZ (5D, 7F)
 There are    35 symmetry adapted cartesian basis functions of A'  symmetry.
 There are    15 symmetry adapted cartesian basis functions of A"  symmetry.
 There are    33 symmetry adapted basis functions of A'  symmetry.
 There are    15 symmetry adapted basis functions of A"  symmetry.
    48 basis functions,    94 primitive gaussians,    50 cartesian basis functions
     9 alpha electrons        9 beta electrons
       nuclear repulsion energy        40.1741913171 Hartrees.
 NAtoms=    6 NActive=    6 NUniq=    5 SFac= 1.44D+00 NAtFMM=   60 NAOKFM=F Big=F
 Integral buffers will be    131072 words long.
 Raffenetti 2 integral format.
 Two-electron integral symmetry is turned on.
 One-electron integrals computed using PRISM.
 NBasis=    48 RedAO= T EigKep=  2.28D-02  NBF=    33    15
 NBsUse=    48 1.00D-06 EigRej= -1.00D+00 NBFU=    33    15
 Initial guess from the checkpoint file:  "/scratch/kmoore/Gau-12047.chk"
 B after Tr=    -0.000000    0.000000    0.000000
         Rot=    1.000000   -0.000000   -0.000000    0.000000 Ang=   0.00 deg.
 Initial guess orbital symmetries:
       Occupied  (A') (A') (A') (A') (A') (A") (A') (A') (A")
       Virtual   (A') (A') (A') (A") (A') (A') (A") (A') (A') (A")
                 (A') (A') (A') (A") (A') (A') (A") (A') (A") (A')
                 (A") (A") (A') (A') (A") (A') (A') (A') (A") (A')
                 (A') (A") (A') (A') (A") (A") (A') (A') (A')
 Keep R1 ints in memory in symmetry-blocked form, NReq=1597446.
 Requested convergence on RMS density matrix=1.00D-08 within 128 cycles.
 Requested convergence on MAX density matrix=1.00D-06.
 Requested convergence on             energy=1.00D-06.
 No special actions if energy rises.
 SCF Done:  E(RB3LYP) =  -115.722814984     A.U. after    1 cycles
            NFock=  1  Conv=0.22D-09     -V/T= 2.0066
 DoSCS=F DFT=T ScalE2(SS,OS)=  1.000000  1.000000
 Range of M.O.s used for correlation:     1    48
 NBasis=    48 NAE=     9 NBE=     9 NFC=     0 NFV=     0
 NROrb=     48 NOA=     9 NOB=     9 NVA=    39 NVB=    39
 Symmetrizing basis deriv contribution to polar:
 IMax=3 JMax=2 DiffMx= 0.00D+00
 G2DrvN: will do     7 centers at a time, making    1 passes.
 Calling FoFCou, ICntrl=  3107 FMM=F I1Cent=   0 AccDes= 0.00D+00.
 End of G2Drv F.D. properties file   721 does not exist.
 End of G2Drv F.D. properties file   722 does not exist.
 End of G2Drv F.D. properties file   788 does not exist.
          IDoAtm=111111
          Differentiating once with respect to electric field.
                with respect to dipole field.
          Differentiating once with respect to nuclear coordinates.
 Keep R1 ints in memory in symmetry-blocked form, NReq=1567694.
          There are    18 degrees of freedom in the 1st order CPHF.  IDoFFX=4 NUNeed=    18.
     18 vectors produced by pass  0 Test12= 1.95D-15 5.56D-09 XBig12= 9.18D+00 1.39D+00.
 AX will form    18 AO Fock derivatives at one time.
     18 vectors produced by pass  1 Test12= 1.95D-15 5.56D-09 XBig12= 5.32D-01 1.89D-01.
     18 vectors produced by pass  2 Test12= 1.95D-15 5.56D-09 XBig12= 7.65D-03 2.80D-02.
     18 vectors produced by pass  3 Test12= 1.95D-15 5.56D-09 XBig12= 5.78D-06 5.11D-04.
     18 vectors produced by pass  4 Test12= 1.95D-15 5.56D-09 XBig12= 4.84D-09 2.14D-05.
      5 vectors produced by pass  5 Test12= 1.95D-15 5.56D-09 XBig12= 2.10D-12 3.41D-07.
      1 vectors produced by pass  6 Test12= 1.95D-15 5.56D-09 XBig12= 6.18D-16 5.86D-09.
 InvSVY:  IOpt=1 It=  1 EMax= 1.33D-15
 Solved reduced A of dimension    96 with    18 vectors.
 Isotropic polarizability for W=    0.000000       16.51 Bohr**3.
 End of Minotr F.D. properties file   721 does not exist.
 End of Minotr F.D. properties file   722 does not exist.
 End of Minotr F.D. properties file   788 does not exist.

 **********************************************************************

            Population analysis using the SCF density.

 **********************************************************************

 Orbital symmetries:
       Occupied  (A') (A') (A') (A') (A') (A") (A') (A') (A")
       Virtual   (A') (A') (A') (A") (A') (A') (A") (A') (A') (A")
                 (A') (A') (A') (A") (A') (A') (A") (A') (A") (A')
                 (A") (A") (A') (A') (A") (A') (A') (A') (A") (A')
                 (A') (A") (A') (A') (A") (A") (A') (A') (A')
 The electronic state is 1-A'.
 Alpha  occ. eigenvalues --  -19.13029 -10.22693  -1.01115  -0.67527  -0.50020
 Alpha  occ. eigenvalues --   -0.43123  -0.41753  -0.32829  -0.26445
 Alpha virt. eigenvalues --    0.05515   0.09224   0.13452   0.13661   0.19711
 Alpha virt. eigenvalues --    0.44468   0.46043   0.48780   0.57145   0.62592
 Alpha virt. eigenvalues --    0.64886   0.65121   0.86777   0.89768   0.95484
 Alpha virt. eigenvalues --    1.00920   1.06282   1.20042   1.34149   1.39083
 Alpha virt. eigenvalues --    1.41052   1.59449   1.61682   1.64670   1.65452
 Alpha virt. eigenvalues --    1.73026   1.84601   1.98733   2.06422   2.08749
 Alpha virt. eigenvalues --    2.16428   2.38144   2.39233   2.41295   2.93172
 Alpha virt. eigenvalues --    3.01532   3.05634   3.20037   3.66866
          Condensed to atoms (all electrons):
               1          2          3          4          5          6
     1  H    0.567745   0.345539  -0.047863   0.009344  -0.006572  -0.006572
     2  O    0.345539   7.649694   0.372265  -0.025436  -0.032316  -0.032316
     3  C   -0.047863   0.372265   4.410303   0.397876   0.386911   0.386911
     4  H    0.009344  -0.025436   0.397876   0.657032  -0.035424  -0.035424
     5  H   -0.006572  -0.032316   0.386911  -0.035424   0.729588  -0.048900
     6  H   -0.006572  -0.032316   0.386911  -0.035424  -0.048900   0.729588
 Mulliken charges:
               1
     1  H    0.138378
     2  O   -0.277430
     3  C    0.093597
     4  H    0.032031
     5  H    0.006712
     6  H    0.006712
 Sum of Mulliken charges =  -0.00000
 Mulliken charges with hydrogens summed into heavy atoms:
               1
     2  O   -0.139053
     3  C    0.139053
 APT charges:
               1
     1  H    0.233995
     2  O   -0.557685
     3  C    0.520387
     4  H   -0.025481
     5  H   -0.085608
     6  H   -0.085608
 Sum of APT charges =   0.00000
 APT charges with hydrogens summed into heavy atoms:
               1
     2  O   -0.323690
     3  C    0.323690
 Electronic spatial extent (au):  <R**2>=             84.2619
 Charge=             -0.0000 electrons
 Dipole moment (field-independent basis, Debye):
    X=             -1.3370    Y=              0.7749    Z=             -0.0000  Tot=              1.5453
 Quadrupole moment (field-independent basis, Debye-Ang):
   XX=            -11.6295   YY=            -13.0190   ZZ=            -13.5451
   XY=              1.9914   XZ=              0.0000   YZ=             -0.0000
 Traceless Quadrupole moment (field-independent basis, Debye-Ang):
   XX=              1.1017   YY=             -0.2878   ZZ=             -0.8139
   XY=              1.9914   XZ=              0.0000   YZ=             -0.0000
 Octapole moment (field-independent basis, Debye-Ang**2):
  XXX=             -1.0797  YYY=             -4.3635  ZZZ=             -0.0000  XYY=             -2.0350
  XXY=             -2.4419  XXZ=              0.0000  XZZ=             -0.4576  YZZ=             -0.8503
  YYZ=             -0.0000  XYZ=              0.0000
 Hexadecapole moment (field-independent basis, Debye-Ang**3):
 XXXX=            -19.0419 YYYY=            -60.9414 ZZZZ=            -19.5318 XXXY=              0.8404
 XXXZ=             -0.0000 YYYX=              0.8908 YYYZ=             -0.0000 ZZZX=             -0.0000
 ZZZY=              0.0000 XXYY=            -12.2168 XXZZ=             -6.8117 YYZZ=            -13.7668
 XXYZ=              0.0000 YYXZ=             -0.0000 ZZXY=             -0.7705
 N-N= 4.017419131709D+01 E-N=-3.517733506373D+02  KE= 1.149670708790D+02
 Symmetry A'   KE= 1.083588887285D+02
 Symmetry A"   KE= 6.608182150514D+00
  Exact polarizability:  16.766   1.069  17.947   0.000   0.000  14.816
 Approx polarizability:  21.519   0.763  22.409  -0.000  -0.000  17.948
 Calling FoFJK, ICntrl=    100127 FMM=F ISym2X=1 I1Cent= 0 IOpClX= 0 NMat=1 NMatS=1 NMatT=0.
 Full mass-weighted force constant matrix:
 Low frequencies ---   -9.9301   -8.7745   -5.5575   -0.0012   -0.0011   -0.0010
 Low frequencies ---  333.9055 1060.6655 1090.6132
 Diagonal vibrational polarizability:
        0.1836403       3.4505990      27.0355572
 Harmonic frequencies (cm**-1), IR intensities (KM/Mole), Raman scattering
 activities (A**4/AMU), depolarization ratios for plane and unpolarized
 incident light, reduced masses (AMU), force constants (mDyne/A),
 and normal coordinates:
                      1                      2                      3
                     A"                     A'                     A'
 Frequencies --    333.9050              1060.6655              1090.6132
 Red. masses --      1.0696                 1.6419                 2.2548
 Frc consts  --      0.0703                 1.0883                 1.5802
 IR Inten    --    110.8075               103.1143                13.2347
  Atom  AN      X      Y      Z        X      Y      Z        X      Y      Z
     1   1    -0.00   0.00   0.88    -0.24   0.55  -0.00     0.11  -0.54  -0.00
     2   8     0.00  -0.00  -0.06    -0.01  -0.16   0.00     0.01  -0.19   0.00
     3   6    -0.00   0.00   0.00     0.08   0.14  -0.00    -0.07   0.25  -0.00
     4   1     0.00  -0.00   0.29    -0.09   0.64   0.00     0.10  -0.32   0.00
     5   1    -0.23  -0.04  -0.10    -0.24  -0.17  -0.04     0.22   0.43   0.05
     6   1     0.23   0.04  -0.10    -0.24  -0.17   0.04     0.22   0.43  -0.05
                      4                      5                      6
                     A"                     A'                     A"
 Frequencies --   1155.2262              1377.5934              1465.8906
 Red. masses --      1.2805                 1.2843                 1.0448
 Frc consts  --      1.0068                 1.4360                 1.3228
 IR Inten    --      0.6719                27.0052                 1.7231
  Atom  AN      X      Y      Z        X      Y      Z        X      Y      Z
     1   1    -0.00  -0.00  -0.01    -0.20   0.79  -0.00    -0.00   0.00  -0.01
     2   8     0.00  -0.00  -0.06     0.08  -0.02   0.00     0.00  -0.00  -0.01
     3   6    -0.00   0.00   0.14    -0.13  -0.02  -0.00    -0.00  -0.00  -0.06
     4   1     0.00   0.00  -0.29    -0.02  -0.37   0.00    -0.00   0.00   0.72
     5   1    -0.06   0.64  -0.19     0.24   0.09   0.14     0.39   0.28   0.06
     6   1     0.06  -0.64  -0.19     0.24   0.09  -0.14    -0.39  -0.28   0.06
                      7                      8                      9
                     A'                     A'                     A'
 Frequencies --   1467.3327              1485.0055              2965.1963
 Red. masses --      1.1279                 1.0558                 1.0384
 Frc consts  --      1.4308                 1.3718                 5.3791
 IR Inten    --      8.0279                 4.1540                66.7535
  Atom  AN      X      Y      Z        X      Y      Z        X      Y      Z
     1   1    -0.00  -0.03   0.00    -0.04   0.16   0.00    -0.00  -0.00  -0.00
     2   8    -0.01  -0.01   0.00     0.02  -0.01  -0.00    -0.00  -0.00  -0.00
     3   6    -0.02  -0.10   0.00     0.03  -0.05   0.00     0.03  -0.04   0.00
     4   1    -0.24   0.66  -0.00     0.05  -0.20  -0.00     0.24   0.07   0.00
     5   1     0.32   0.38  -0.03    -0.36   0.41  -0.40    -0.29   0.25   0.56
     6   1     0.32   0.38   0.03    -0.36   0.41   0.40    -0.29   0.25  -0.56
                     10                     11                     12
                     A"                     A'                     A'
 Frequencies --   3009.4709              3101.1338              3781.1179
 Red. masses --      1.1050                 1.0960                 1.0664
 Frc consts  --      5.8964                 6.2102                 8.9831
 IR Inten    --     85.6737                33.3551                19.4390
  Atom  AN      X      Y      Z        X      Y      Z        X      Y      Z
     1   1    -0.00  -0.00   0.00    -0.02   0.00   0.00     0.95   0.31   0.00
     2   8     0.00  -0.00   0.00     0.00  -0.00   0.00    -0.06  -0.02  -0.00
     3   6     0.00  -0.00  -0.09    -0.09  -0.01   0.00    -0.00   0.00   0.00
     4   1     0.00   0.00  -0.03     0.93   0.27  -0.00     0.02   0.00  -0.00
     5   1    -0.33   0.26   0.57     0.06  -0.06  -0.14     0.00   0.00  -0.00
     6   1     0.33  -0.26   0.57     0.06  -0.06   0.14     0.00   0.00   0.00

 -------------------
 - Thermochemistry -
 -------------------
 Temperature   298.150 Kelvin.  Pressure   1.00000 Atm.
 Atom     1 has atomic number  1 and mass   1.00783
 Atom     2 has atomic number  8 and mass  15.99491
 Atom     3 has atomic number  6 and mass  12.00000
 Atom     4 has atomic number  1 and mass   1.00783
 Atom     5 has atomic number  1 and mass   1.00783
 Atom     6 has atomic number  1 and mass   1.00783
 Molecular mass:    32.02621 amu.
 Principal axes and moments of inertia in atomic units:
                           1         2         3
     Eigenvalues --    14.29339  72.85521  75.54979
           X            0.05448   0.99851   0.00000
           Y            0.99851  -0.05448   0.00000
           Z            0.00000   0.00000   1.00000
 This molecule is an asymmetric top.
 Rotational symmetry number  1.
 Rotational temperatures (Kelvin)      6.05971     1.18885     1.14645
 Rotational constants (GHZ):         126.26400    24.77162    23.88810
 Zero-point vibrational energy     133342.7 (Joules/Mol)
                                   31.86966 (Kcal/Mol)
 Warning -- explicit consideration of   1 degrees of freedom as
           vibrations may cause significant error
 Vibrational temperatures:    480.41  1526.06  1569.15  1662.11  1982.05
          (Kelvin)           2109.09  2111.16  2136.59  4266.25  4329.95
                             4461.83  5440.18
 
 Zero-point correction=                           0.050788 (Hartree/Particle)
 Thermal correction to Energy=                    0.054099
 Thermal correction to Enthalpy=                  0.055043
 Thermal correction to Gibbs Free Energy=         0.028048
 Sum of electronic and zero-point Energies=           -115.672027
 Sum of electronic and thermal Energies=              -115.668716
 Sum of electronic and thermal Enthalpies=            -115.667772
 Sum of electronic and thermal Free Energies=         -115.694767
 
                     E (Thermal)             CV                S
                      KCal/Mol        Cal/Mol-Kelvin    Cal/Mol-Kelvin
 Total                   33.948              8.771             56.816
 Electronic               0.000              0.000              0.000
 Translational            0.889              2.981             36.324
 Rotational               0.889              2.981             19.004
 Vibrational             32.170              2.809              1.488
 Vibration     1          0.715              1.608              1.241
                       Q            Log10(Q)             Ln(Q)
 Total Bot       0.125526D-12        -12.901268        -29.706266
 Total V=0       0.287957D+11         10.459327         24.083490
 Vib (Bot)       0.554955D-23        -23.255742        -53.548325
 Vib (Bot)    1  0.558230D+00         -0.253187         -0.582984
 Vib (V=0)       0.127307D+01          0.104852          0.241431
 Vib (V=0)    1  0.124941D+01          0.096706          0.222674
 Electronic      0.100000D+01          0.000000          0.000000
 Translational   0.712383D+07          6.852714         15.778956
 Rotational      0.317513D+04          3.501761          8.063103
 ***** Axes restored to original set *****
 -------------------------------------------------------------------
 Center     Atomic                   Forces (Hartrees/Bohr)
 Number     Number              X              Y              Z
 -------------------------------------------------------------------
      1        1          -0.000021854    0.000000000   -0.000032875
      2        8          -0.000050131    0.000000000   -0.000016210
      3        6           0.000048734    0.000000000    0.000153354
      4        1          -0.000006916   -0.000000000   -0.000038357
      5        1           0.000015083   -0.000007838   -0.000032956
      6        1           0.000015083    0.000007838   -0.000032956
 -------------------------------------------------------------------
 Cartesian Forces:  Max     0.000153354 RMS     0.000043777

 GradGradGradGradGradGradGradGradGradGradGradGradGradGradGradGradGradGrad
 Berny optimization.
 Search for a local minimum.
 Step number   1 out of a maximum of    2
 All quantities printed in internal units (Hartrees-Bohrs-Radians)
 Second derivative matrix not updated -- analytic derivatives used.
 The second derivative matrix:
                          X1        Y1        Z1        X2        Y2
           X1           0.05679
           Y1           0.00000   0.00314
           Z1           0.02301   0.00000   0.51249
           X2          -0.04201   0.00000  -0.02994   0.35444
           Y2           0.00000  -0.00324  -0.00000  -0.00000   0.04474
           Z2           0.02716  -0.00000  -0.50427   0.07135   0.00000
           X3          -0.01024  -0.00000   0.00733  -0.23580   0.00000
           Y3           0.00000  -0.00162   0.00000  -0.00000  -0.06019
           Z3          -0.04849  -0.00000  -0.01295  -0.01581   0.00000
           X4          -0.00693   0.00000  -0.00394  -0.00910  -0.00000
           Y4          -0.00000   0.00065  -0.00000  -0.00000   0.00146
           Z4          -0.00172  -0.00000   0.00209  -0.00726   0.00000
           X5           0.00120   0.00035   0.00177  -0.03376  -0.02616
           Y5          -0.00072   0.00054  -0.00035  -0.00388   0.00862
           Z5           0.00002  -0.00149   0.00132  -0.00917  -0.00959
           X6           0.00120  -0.00035   0.00177  -0.03376   0.02616
           Y6           0.00072   0.00054   0.00035   0.00388   0.00862
           Z6           0.00002   0.00149   0.00132  -0.00917   0.00959
                          Z2        X3        Y3        Z3        X4
           Z2           0.60429
           X3          -0.06436   0.48128
           Y3          -0.00000   0.00000   0.54218
           Z3          -0.10476  -0.02085   0.00000   0.59162
           X4          -0.04245  -0.04655  -0.00000   0.01608   0.06005
           Y4           0.00000   0.00000  -0.04799   0.00000   0.00000
           Z4          -0.00912   0.00228   0.00000  -0.31404   0.00371
           X5           0.00415  -0.09435  -0.08610   0.03454   0.00127
           Y5          -0.00447  -0.08867  -0.21619   0.06890   0.00114
           Z5           0.00693   0.03780   0.06881  -0.07993   0.01330
           X6           0.00415  -0.09435   0.08610   0.03454   0.00127
           Y6           0.00447   0.08867  -0.21619  -0.06890  -0.00114
           Z6           0.00693   0.03780  -0.06881  -0.07993   0.01330
                          Y4        Z4        X5        Y5        Z5
           Y4           0.04483
           Z4          -0.00000   0.33884
           X5          -0.00068   0.00149   0.11688
           Y5           0.00052  -0.00036   0.10236   0.22796
           Z5           0.02647  -0.00888  -0.03796  -0.07396   0.07607
           X6           0.00068   0.00149   0.00877  -0.01023  -0.00399
           Y6           0.00052   0.00036   0.01023  -0.02144  -0.01025
           Z6          -0.02647  -0.00888  -0.00399   0.01025   0.00449
                          X6        Y6        Z6
           X6           0.11688
           Y6          -0.10236   0.22796
           Z6          -0.03796   0.07396   0.07607
 ITU=  0
     Eigenvalues ---    0.00603   0.05105   0.08543   0.09208   0.12107
     Eigenvalues ---    0.12153   0.17284   0.33456   0.65191   0.69817
     Eigenvalues ---    0.74954   0.94653
 Angle between quadratic step and forces=  48.73 degrees.
 ClnCor:  largest displacement from symmetrization is 5.73D-14 for atom     1.
 Linear search not attempted -- first point.
 ClnCor:  largest displacement from symmetrization is 1.83D-15 for atom     4.
 B after Tr=     0.000019   -0.000000    0.000022
         Rot=    1.000000    0.000000    0.000006   -0.000000 Ang=   0.00 deg.
 Variable       Old X    -DE/DX   Delta X   Delta X   Delta X     New X
                                 (Linear)    (Quad)   (Total)
    X1       -0.08758  -0.00002   0.00000  -0.00016  -0.00014  -0.08772
    Y1       -0.00000   0.00000   0.00000  -0.00000  -0.00000  -0.00000
    Z1        0.02780  -0.00003   0.00000  -0.00011  -0.00009   0.02772
    X2       -0.03057  -0.00005   0.00000  -0.00008  -0.00009  -0.03066
    Y2        0.00000   0.00000   0.00000  -0.00000  -0.00000   0.00000
    Z2        1.85524  -0.00002   0.00000  -0.00005  -0.00003   1.85521
    X3        2.54473   0.00005   0.00000   0.00008   0.00007   2.54479
    Y3       -0.00000   0.00000   0.00000   0.00000   0.00000  -0.00000
    Z3        2.58087   0.00015   0.00000   0.00026   0.00031   2.58118
    X4        2.59152  -0.00001   0.00000  -0.00010  -0.00013   2.59138
    Y4        0.00000  -0.00000   0.00000   0.00000   0.00000   0.00000
    Z4        4.66120  -0.00004   0.00000   0.00011   0.00016   4.66136
    X5        3.58359   0.00002   0.00000   0.00015   0.00015   3.58374
    Y5        1.69623  -0.00001   0.00000  -0.00019  -0.00019   1.69603
    Z5        1.92101  -0.00003   0.00000  -0.00024  -0.00018   1.92084
    X6        3.58359   0.00002   0.00000   0.00015   0.00015   3.58374
    Y6       -1.69623   0.00001   0.00000   0.00019   0.00019  -1.69603
    Z6        1.92101  -0.00003   0.00000  -0.00024  -0.00018   1.92084
         Item               Value     Threshold  Converged?
 Maximum Force            0.000153     0.000450     YES
 RMS     Force            0.000044     0.000300     YES
 Maximum Displacement     0.000310     0.001800     YES
 RMS     Displacement     0.000142     0.001200     YES
 Predicted change in Energy=-3.776179D-08
 Optimization completed.
    -- Stationary point found.
 GradGradGradGradGradGradGradGradGradGradGradGradGradGradGradGradGradGrad

 1\1\GINC-B450\Freq\RB3LYP\CC-pVDZ\C1H4O1\KMOORE\27-Jan-2019\0\\#N Geom
 =AllCheck Guess=TCheck SCRF=Check GenChk RB3LYP/CC-pVDZ Freq\\Optimiza
 tion\\0,1\H,-0.0463444565,0.,0.0147137552\O,-0.0161782224,0.,0.9817528
 198\C,1.346611164,0.,1.3657392025\H,1.3713717682,0.,2.4665991705\H,1.8
 963523733,0.8976050728,1.016556526\H,1.8963523733,-0.8976050728,1.0165
 56526\\Version=ES64L-G09RevE.01\State=1-A'\HF=-115.722815\RMSD=2.196e-
 10\RMSF=4.378e-05\ZeroPoint=0.0507875\Thermal=0.0540992\Dipole=0.43607
 95,0.,-0.4236106\DipoleDeriv=0.2394279,0.,0.0458202,0.,0.3421128,0.,0.
 0164773,0.,0.1204433,-0.8531848,0.,-0.175587,0.,-0.5177998,0.,-0.22659
 5,0.,-0.3020703,0.8224254,0.,0.143522,0.,0.4183027,0.,0.1719513,0.,0.3
 204319,0.0148921,0.,0.0046682,0.,0.0615791,0.,-0.0303412,0.,-0.1529129
 ,-0.1117803,-0.0932272,-0.0092117,-0.1199932,-0.1520974,0.0621383,0.03
 42538,0.0750883,0.007054,-0.1117803,0.0932272,-0.0092117,0.1199932,-0.
 1520974,-0.0621383,0.0342538,-0.0750883,0.007054\Polar=17.3018139,0.,1
 4.8158188,1.2198937,0.,17.4105189\PG=CS [SG(C1H2O1),X(H2)]\NImag=0\\0.
 05679037,0.,0.00314395,0.02300900,0.,0.51249354,-0.04200949,0.,-0.0299
 3939,0.35443829,0.,-0.00324432,0.,0.,0.04473659,0.02715930,0.,-0.50427
 319,0.07134795,0.,0.60428983,-0.01024455,0.,0.00732878,-0.23580136,0.,
 -0.06435650,0.48128286,0.,-0.00162388,0.,0.,-0.06018647,0.,0.,0.542175
 68,-0.04849249,0.,-0.01295177,-0.01580977,0.,-0.10476020,-0.02085255,0
 .,0.59161810,-0.00693441,0.,-0.00394334,-0.00910110,0.,-0.04245080,-0.
 04654636,0.,0.01608459,0.06004554,0.,0.00065361,0.,0.,0.00145938,0.,0.
 ,-0.04798821,0.,0.,0.04483186,-0.00171604,0.,0.00208597,-0.00725599,0.
 ,-0.00912070,0.00228072,0.,-0.31404269,0.00370913,0.,0.33883727,0.0011
 9904,0.00035378,0.00177248,-0.03376317,-0.02616026,0.00415003,-0.09434
 530,-0.08610393,0.03453511,0.00126817,-0.00067919,0.00149109,0.1168759
 6,-0.00072139,0.00053532,-0.00035102,-0.00388256,0.00861741,-0.0044689
 2,-0.08866802,-0.21618856,0.06889756,0.00113638,0.00052167,-0.00036467
 ,0.10236259,0.22795549,0.00002011,-0.00148961,0.00132273,-0.00917140,-
 0.00958915,0.00693214,0.03779978,0.06881363,-0.07993172,0.01330021,0.0
 2647397,-0.00887992,-0.03796117,-0.07396090,0.07606655,0.00119904,-0.0
 0035378,0.00177248,-0.03376317,0.02616026,0.00415003,-0.09434530,0.086
 10393,0.03453511,0.00126817,0.00067919,0.00149109,0.00876530,-0.010227
 01,-0.00398753,0.11687596,0.00072139,0.00053532,0.00035102,0.00388256,
 0.00861741,0.00446892,0.08866802,-0.21618856,-0.06889756,-0.00113638,0
 .00052167,0.00036467,0.01022701,-0.02144133,-0.01024794,-0.10236259,0.
 22795549,0.00002011,0.00148961,0.00132273,-0.00917140,0.00958915,0.006
 93214,0.03779978,-0.06881363,-0.07993172,0.01330021,-0.02647397,-0.008
 87992,-0.00398753,0.01024794,0.00449023,-0.03796117,0.07396090,0.07606
 655\\0.00002185,0.,0.00003287,0.00005013,0.,0.00001621,-0.00004873,0.,
 -0.00015335,0.00000692,0.,0.00003836,-0.00001508,0.00000784,0.00003296
 ,-0.00001508,-0.00000784,0.00003296\\\@


 IF MATHEMATICALLY YOU END UP WITH THE INCORRECT ANSWER,
 TRY MULTIPLYING BY THE PAGE NUMBER.
 Job cpu time:       0 days  0 hours  1 minutes  0.3 seconds.
 File lengths (MBytes):  RWF=      5 Int=      0 D2E=      0 Chk=      1 Scr=      1
 Normal termination of Gaussian 09 at Sun Jan 27 13:20:01 2019.
