
 Primary working directories    : /scratch/kmoore
 Secondary working directories  : /scratch/kmoore
 Wavefunction directory         : /scratch/kmoore/
 Main file repository           : /scratch/kmoore/

 SHA1      : b6b3a4772808bb2d43777f23454e145ddfe12dc3
 NAME      : 2015.1.1
 ARCHNAME  : linux/x86_64
 FC        : /soft/mvapich2/2.2b_psm/intel-15.0/bin/mpif90
 BLASLIB   : -L/soft/intel/15.0.1/composer_xe_2015.0.090/mkl/lib/intel64 -lmkl_intel_ilp64 -lmkl_sequential -lmkl_core
 id        : anlgov

 Nodes     nprocs
 b438        14
 Number of processes for MPI-2 version of Molpro:   nprocs(total)=   15   nprocs(compute)=   14   nprocs(helper)=    1

 Using customized tuning parameters: mindgm=1; mindgv=20; mindgc=4; mindgr=1; noblas=0; minvec=7
 default implementation of scratch files=df  

 memory,850,m
 gthresh,energy=1.0d-10,orbital=1.0d-10,oneint=1.d-12,twoint=1.d-14
 
 angstrom
 Geometry = {
  N    0.02641   0.02394   0.04560
  H   -0.02565  -0.46548   0.92865
  H    0.94651  -0.11268  -0.34847
  H   -0.65764  -0.38968  -0.57326
  O   -0.38671  -2.53394   0.09459
  H    0.48973  -2.70207  -0.28398
 }
 
 basis=minao
 {uhf,maxit=300
  wf,19,1,1,0}
 
 basis=cc-pVDZ
 {rhf,maxit=300
  wf,19,1,1,0}
 {uccsd(t),maxit=300}
 
 {optg,gradient=1.d-8}
 
 {freq}
 
 put,molden,freq.molden

 Variables initialized (889), CPU time= 0.00 sec
 Commands  initialized (702), CPU time= 0.01 sec, 572 directives.
 Default parameters read. Elapsed time= 0.08 sec

 Checking input...
 Passed
1


                                         ***  PROGRAM SYSTEM MOLPRO  ***
                                       Copyright, TTI GmbH Stuttgart, 2015
                                    Version 2015.1 linked Jan  8 2016 07:59:11


 **********************************************************************************************************************************
 LABEL *                                                                                 
  64 bit mppx version                                                                    DATE: 26-Oct-18          TIME: 17:22:33  
 **********************************************************************************************************************************

 SHA1:             b6b3a4772808bb2d43777f23454e145ddfe12dc3
 **********************************************************************************************************************************

 THRESHOLDS:

 ZERO    =  1.00D-12  ONEINT  =  1.00D-12  TWOINT  =  1.00D-14  PREFAC  =  1.00D-14  LOCALI  =  1.00D-09  EORDER  =  1.00D-04
 ENERGY  =  1.00D-10  ETEST   =  0.00D+00  EDENS   =  0.00D+00  THRDEDEF=  1.00D-06  GRADIENT=  1.00D-02  STEP    =  1.00D-03
 ORBITAL =  1.00D-10  CIVEC   =  1.00D-05  COEFF   =  1.00D-04  PRINTCI =  5.00D-02  PUNCHCI =  9.90D+01  OPTGRAD =  3.00D-04
 OPTENERG=  1.00D-06  OPTSTEP =  3.00D-04  THRGRAD =  1.00D-10  COMPRESS=  1.00D-11  VARMIN  =  1.00D-07  VARMAX  =  1.00D-03
 THRDOUB =  0.00D+00  THRDIV  =  1.00D-05  THRRED  =  1.00D-07  THRPSP  =  1.00D+00  THRDC   =  1.00D-10  THRCS   =  1.00D-10
 THRNRM  =  1.00D-08  THREQ   =  0.00D+00  THRDE   =  1.00D+00  THRREF  =  1.00D-05  SPARFAC =  1.00D+00  THRDLP  =  1.00D-07
 THRDIA  =  1.00D-10  THRDLS  =  1.00D-07  THRGPS  =  0.00D+00  THRKEX  =  0.00D+00  THRDIS  =  2.00D-01  THRVAR  =  1.00D-10
 THRLOC  =  1.00D-06  THRGAP  =  1.00D-06  THRLOCT = -1.00D+00  THRGAPT = -1.00D+00  THRORB  =  1.00D-06  THRMLTP =  0.00D+00
 THRCPQCI=  1.00D-10  KEXTA   =  0.00D+00  THRCOARS=  0.00D+00  SYMTOL  =  1.00D-06  GRADTOL =  1.00D-06  THROVL  =  1.00D-08
 THRORTH =  1.00D-08  GRID    =  1.00D-06  GRIDMAX =  1.00D-03  DTMAX   =  0.00D+00  THROCCDE=  1.00D-01  THROCCDE=  1.00D-01


 ZUNIT=ANG
 

Geometry recognized as XYZ


 Variable memory set to  850000000 words,  buffer space   230000 words

 SETTING BASIS          =    MINAO


 Recomputing integrals since basis changed


 Using spherical harmonics

 Library entry N      S MINAO                selected for orbital group  1
 Library entry N      P MINAO                selected for orbital group  1
 Library entry H      S MINAO                selected for orbital group  2
 Library entry O      S MINAO                selected for orbital group  3
 Library entry O      P MINAO                selected for orbital group  3

1PROGRAM * SEWARD (Integral evaluation for generally contracted gaussian basis sets)     Author: Roland Lindh, 1990

 Geometry written to block  1 of record 700


 Point group  C1  



 ATOMIC COORDINATES

 NR  ATOM    CHARGE       X              Y              Z

   1  N       7.00    0.049907667    0.045240043    0.086171511
   2  H       1.00   -0.048471475   -0.879629716    1.754894166
   3  H       1.00    1.788644674   -0.212934340   -0.658512863
   4  H       1.00   -1.242759489   -0.736388476   -1.083304398
   5  O       8.00   -0.730775990   -4.788452616    0.178749194
   6  H       1.00    0.925455575   -5.106172269   -0.536644425

 Bond lengths in Bohr (Angstrom)

 1-2  1.910418233  1-3  1.909035151  1-4  1.910394048  5-6  1.831894321
     ( 1.010949792)     ( 1.010217897)     ( 1.010936994)     ( 0.969396728)

 Bond angles

  2-1-3  108.79383594   2-1-4  107.56558303   3-1-4  108.79361587

 NUCLEAR CHARGE:                   19
 NUMBER OF PRIMITIVE AOS:          70
 NUMBER OF SYMMETRY AOS:           70
 NUMBER OF CONTRACTIONS:           14   (  14A   )
 NUMBER OF CORE ORBITALS:           2   (   2A   )
 NUMBER OF VALENCE ORBITALS:       12   (  12A   )


 NUCLEAR REPULSION ENERGY   34.96211037

 Eigenvalues of metric

         1 0.264E+00 0.289E+00 0.290E+00 0.340E+00 0.913E+00 0.995E+00 0.998E+00 0.100E+01


 Contracted 2-electron integrals neglected if value below      1.0D-14
 AO integral compression algorithm  1   Integral accuracy      1.0D-14

     0.262 MB (compressed) written to integral file (100.0%)


 NUMBER OF SORTED TWO-ELECTRON INTEGRALS:       5565.     BUFFER LENGTH:  32768
 NUMBER OF SEGMENTS:   1  SEGMENT LENGTH:       5565      RECORD LENGTH: 524288

 Memory used in sort:       0.56 MW

 SORT1 READ        7374. AND WROTE        5391. INTEGRALS IN      1 RECORDS. CPU TIME:     0.00 SEC, REAL TIME:     0.00 SEC
 SORT2 READ        5391. AND WROTE        5565. INTEGRALS IN      1 RECORDS. CPU TIME:     0.00 SEC, REAL TIME:     0.00 SEC

 FILE SIZES:   FILE 1:    19.4 MBYTE,  FILE 4:     4.2 MBYTE,   TOTAL:     23.6 MBYTE

 OPERATOR DM      FOR CENTER  0  COORDINATES:    0.000000    0.000000    0.000000


 **********************************************************************************************************************************
 DATASETS  * FILE   NREC   LENGTH (MB)   RECORD NAMES
              1      19       19.20       500      610      700      900      950      970     1000      129      960     1100   
                                          VAR    BASINP    GEOM    SYMINP    ZMAT    AOBASIS   BASIS     P2S    ABASIS      S 
                                         1400     1410     1200     1210     1080     1600     1650     1300     1700   
                                           T        V       H0       H01     AOSYM     SMH    MOLCAS    ERIS     OPER   

 PROGRAMS   *        TOTAL       INT
 CPU TIMES  *         0.52      0.39
 REAL TIME  *         0.97 SEC
 DISK USED  *        24.00 MB      
 **********************************************************************************************************************************

1PROGRAM * UHF-SCF       Authors: W. Meyer, H.-J. Werner


 NUMBER OF ELECTRONS:      10+    9-    SPACE SYMMETRY=1    SPIN SYMMETRY: Doublet 
 CONVERGENCE THRESHOLDS:    1.00E-10 (Density)    1.00E-11 (Energy)
 MAX. NUMBER OF ITERATIONS:      300
 INTERPOLATION TYPE:            DIIS
 INTERPOLATION STEPS:              2 (START)      1 (STEP)
 LEVEL SHIFTS:                  0.20 (ALPHA)   0.20 (BETA) 



 Orbital guess generated from atomic densities. Full valence occupancy:   10

 Molecular orbital dump at record        2200.2

 Initial alpha occupation  10
 Initial beta  occupation   9

 ITERATION    DDIFF          GRAD             ENERGY        2-EL.EN.            DIPOLE MOMENTS         DIIS
    1      0.000D+00      0.000D+00      -131.09881715    169.140973    1.65148    2.73155   -0.56454    0
    2      0.625D-01      0.269D-01      -131.24359489    167.348593    1.00915    1.36534   -0.36035    1
    3      0.247D-01      0.135D-01      -131.28556554    166.244544    0.80353    0.74695   -0.30374    2
    4      0.301D-01      0.119D-01      -131.33387885    165.448672    0.70592    0.01631   -0.29828    3
    5      0.562D-01      0.100D-01      -131.37799422    164.775357    0.77619   -0.75132   -0.36556    4
    6      0.223D-01      0.492D-02      -131.37829959    165.005945    0.68199   -0.77808   -0.32712    5
    7      0.136D-01      0.336D-02      -131.38187435    164.911010    0.71830   -0.85755   -0.34632    6
    8      0.114D-02      0.548D-03      -131.38197288    164.909627    0.71458   -0.85310   -0.34452    7
    9      0.997D-03      0.383D-03      -131.38200898    164.902518    0.71708   -0.85445   -0.34564    8
   10      0.271D-03      0.927D-04      -131.38201164    164.902615    0.71702   -0.85484   -0.34564    8
   11      0.116D-03      0.412D-04      -131.38201240    164.902363    0.71707   -0.85499   -0.34567    8
   12      0.499D-04      0.225D-04      -131.38201258    164.902608    0.71702   -0.85510   -0.34565    6
   13      0.612D-04      0.153D-04      -131.38201270    164.902802    0.71693   -0.85531   -0.34562    6
   14      0.330D-04      0.666D-05      -131.38201272    164.902810    0.71688   -0.85549   -0.34561    7
   15      0.391D-05      0.126D-05      -131.38201272    164.902826    0.71688   -0.85551   -0.34561    6
   16      0.320D-05      0.666D-06      -131.38201272    164.902839    0.71688   -0.85550   -0.34561    7
   17      0.532D-06      0.200D-06      -131.38201272    164.902838    0.71688   -0.85550   -0.34561    7
   18      0.461D-06      0.178D-06      -131.38201272    164.902838    0.71688   -0.85550   -0.34561    7
   19      0.339D-06      0.162D-06      -131.38201272    164.902838    0.71688   -0.85550   -0.34561    7
   20      0.811D-06      0.159D-06      -131.38201272    164.902838    0.71688   -0.85550   -0.34561    6
   21      0.217D-05      0.154D-06      -131.38201272    164.902839    0.71688   -0.85550   -0.34561    7
   22      0.948D-05      0.143D-06      -131.38201272    164.902839    0.71689   -0.85550   -0.34560    7
   23      0.115D-04      0.906D-07      -131.38201272    164.902838    0.71689   -0.85550   -0.34560    8
   24      0.307D-05      0.271D-07      -131.38201272    164.902839    0.71689   -0.85550   -0.34559    9
   25      0.187D-06      0.539D-08      -131.38201272    164.902839    0.71689   -0.85550   -0.34559    9
   26      0.300D-07      0.214D-08      -131.38201272    164.902838    0.71689   -0.85550   -0.34559    9
   27      0.440D-08      0.713D-09      -131.38201272    164.902838    0.71689   -0.85550   -0.34559    9
   28      0.864D-09      0.248D-09      -131.38201272    164.902838    0.71689   -0.85550   -0.34559    8
   29      0.259D-08      0.145D-09      -131.38201272    164.902838    0.71689   -0.85550   -0.34559    6
   30      0.248D-08      0.713D-10      -131.38201272    164.902838    0.71689   -0.85550   -0.34559    6
   31      0.287D-09      0.413D-10      -131.38201272    164.902838    0.71689   -0.85550   -0.34559    6
   32      0.377D-09      0.368D-10      -131.38201272    164.902838    0.71689   -0.85550   -0.34559    6
   33      0.110D-08      0.322D-10      -131.38201272    164.902838    0.71689   -0.85550   -0.34559    7
   34      0.930D-09      0.256D-10      -131.38201272    164.902838    0.71689   -0.85550   -0.34559    7
   35      0.252D-08      0.208D-10      -131.38201272    164.902838    0.71689   -0.85550   -0.34559    8
   36      0.708D-09      0.643D-11      -131.38201272    164.902838    0.71689   -0.85550   -0.34559    9
   37      0.104D-09      0.194D-11      -131.38201272    164.902838    0.71689   -0.85550   -0.34559    9
   38      0.218D-10      0.831D-12      -131.38201272    164.902838    0.71689   -0.85550   -0.34559    9
   39      0.264D-11      0.212D-12      -131.38201272    164.902838    0.71689   -0.85550   -0.34559    9
 
 Final alpha occupancy:  10
 Final beta  occupancy:   9

 !UHF STATE 1.1 Energy               -131.382012724526
 Nuclear energy                        34.96211037
 One-electron energy                 -248.79554233
 Two-electron energy                   82.45141923
 Virial quotient                       -0.99833082
 !UHF STATE 1.1 Dipole moment           0.71688984    -0.85550462    -0.34559465
 Dipole moment /Debye                   1.82203289    -2.17433342    -0.87835645

 Orbital energies for positive spin:

         1.1          2.1          3.1          4.1          5.1          6.1          7.1          8.1          9.1         10.1
    -20.608609   -15.575498    -1.402120    -1.169466    -0.680316    -0.666704    -0.647873    -0.634856    -0.578005    -0.461230

        11.1         12.1
      0.336541     0.419856

 Orbital energies for negative spin:

         1.1          2.1          3.1          4.1          5.1          6.1          7.1          8.1          9.1         10.1
    -20.569941   -15.574469    -1.248130    -1.163521    -0.653371    -0.646080    -0.614507    -0.535326    -0.462680     0.151713

        11.1         12.1
      0.359717     0.439211

 HOMO     10.1    -0.461230 =     -12.5507eV
 LUMO    -10.1     0.151713 =       4.1283eV
 LUMO-HOMO         0.612944 =      16.6790eV

 EXPECTATION VALUE OF S**2:             0.75300552

 Occupation number threshold for canonical orbitals:  1.999000 (occupied),  0.001000 (virtual)

 Number of pseudo-canonical orbitals per symmetry:    8
 Number of active natural orbitals per symmetry:      3

 Natural orbitals saved to record    2200.2 (Orbital set 3)

 Orbital spaces for UNO-CAS (Min. occupation: 0.020  Max. occupation: 1.980):

 Closed:        9
 Active:        1


 **********************************************************************************************************************************
 DATASETS  * FILE   NREC   LENGTH (MB)   RECORD NAMES
              1      19       19.20       500      610      700      900      950      970     1000      129      960     1100   
                                          VAR    BASINP    GEOM    SYMINP    ZMAT    AOBASIS   BASIS     P2S    ABASIS      S 
                                         1400     1410     1200     1210     1080     1600     1650     1300     1700   
                                           T        V       H0       H01     AOSYM     SMH    MOLCAS    ERIS     OPER   

              2       4        0.46       700     1000      520     2200   
                                         GEOM     BASIS   MCVARS     UHF  

 PROGRAMS   *        TOTAL       UHF       INT
 CPU TIMES  *         0.59      0.08      0.39
 REAL TIME  *         1.06 SEC
 DISK USED  *        24.00 MB      
 **********************************************************************************************************************************
 SETTING BASIS          =    CC-PVDZ


 Recomputing integrals since basis changed


 Using spherical harmonics

 Library entry N      S cc-pVDZ              selected for orbital group  1
 Library entry N      P cc-pVDZ              selected for orbital group  1
 Library entry N      D cc-pVDZ              selected for orbital group  1
 Library entry H      S cc-pVDZ              selected for orbital group  2
 Library entry H      P cc-pVDZ              selected for orbital group  2
 Library entry O      S cc-pVDZ              selected for orbital group  3
 Library entry O      P cc-pVDZ              selected for orbital group  3
 Library entry O      D cc-pVDZ              selected for orbital group  3

1PROGRAM * SEWARD (Integral evaluation for generally contracted gaussian basis sets)     Author: Roland Lindh, 1990

 Geometry written to block  1 of record 700


 Point group  C1  



 ATOMIC COORDINATES

 NR  ATOM    CHARGE       X              Y              Z

   1  N       7.00    0.049907667    0.045240043    0.086171511
   2  H       1.00   -0.048471475   -0.879629716    1.754894166
   3  H       1.00    1.788644674   -0.212934340   -0.658512863
   4  H       1.00   -1.242759489   -0.736388476   -1.083304398
   5  O       8.00   -0.730775990   -4.788452616    0.178749194
   6  H       1.00    0.925455575   -5.106172269   -0.536644425

 Bond lengths in Bohr (Angstrom)

 1-2  1.910418233  1-3  1.909035151  1-4  1.910394048  5-6  1.831894321
     ( 1.010949792)     ( 1.010217897)     ( 1.010936994)     ( 0.969396728)

 Bond angles

  2-1-3  108.79383594   2-1-4  107.56558303   3-1-4  108.79361587

 NUCLEAR CHARGE:                   19
 NUMBER OF PRIMITIVE AOS:          82
 NUMBER OF SYMMETRY AOS:           80
 NUMBER OF CONTRACTIONS:           48   (  48A   )
 NUMBER OF CORE ORBITALS:           2   (   2A   )
 NUMBER OF VALENCE ORBITALS:       12   (  12A   )


 NUCLEAR REPULSION ENERGY   34.96211037

 Eigenvalues of metric

         1 0.157E-01 0.251E-01 0.400E-01 0.406E-01 0.420E-01 0.503E-01 0.714E-01 0.747E-01


 Contracted 2-electron integrals neglected if value below      1.0D-14
 AO integral compression algorithm  1   Integral accuracy      1.0D-14

     6.029 MB (compressed) written to integral file ( 89.8%)


 NUMBER OF SORTED TWO-ELECTRON INTEGRALS:     692076.     BUFFER LENGTH:  32768
 NUMBER OF SEGMENTS:   1  SEGMENT LENGTH:     692076      RECORD LENGTH: 524288

 Memory used in sort:       1.25 MW

 SORT1 READ      848924. AND WROTE      682150. INTEGRALS IN      2 RECORDS. CPU TIME:     0.01 SEC, REAL TIME:     0.02 SEC
 SORT2 READ      682150. AND WROTE      692076. INTEGRALS IN     23 RECORDS. CPU TIME:     0.03 SEC, REAL TIME:     0.04 SEC

 FILE SIZES:   FILE 1:    25.3 MBYTE,  FILE 4:     8.4 MBYTE,   TOTAL:     33.7 MBYTE

 OPERATOR DM      FOR CENTER  0  COORDINATES:    0.000000    0.000000    0.000000


 **********************************************************************************************************************************
 DATASETS  * FILE   NREC   LENGTH (MB)   RECORD NAMES
              1      19       24.13       500      610      700      900      950      970     1001      129      960     1100   
                                          VAR    BASINP    GEOM    SYMINP    ZMAT    AOBASIS   BASIS     P2S    ABASIS      S 
                                         1400     1410     1200     1210     1080     1600     1650     1300     1700   
                                           T        V       H0       H01     AOSYM     SMH    MOLCAS    ERIS     OPER   

              2       5        0.47       700     1000      520     2200     1001   
                                         GEOM     BASIS   MCVARS     UHF     BASIS   

 PROGRAMS   *        TOTAL       INT       UHF       INT
 CPU TIMES  *         0.95      0.35      0.08      0.39
 REAL TIME  *         1.49 SEC
 DISK USED  *        34.21 MB      
 **********************************************************************************************************************************

1PROGRAM * RHF-SCF (OPEN SHELL)       Authors: W. Meyer, H.-J. Werner


 NUMBER OF ELECTRONS:      10+    9-    SPACE SYMMETRY=1    SPIN SYMMETRY: Doublet 
 CONVERGENCE THRESHOLDS:    1.00E-10 (Density)    1.00E-11 (Energy)
 MAX. NUMBER OF ITERATIONS:      300
 INTERPOLATION TYPE:            DIIS
 INTERPOLATION STEPS:              2 (START)      1 (STEP)
 LEVEL SHIFTS:                 -0.60 (CLOSED) -0.30 (OPEN) 



 Molecular orbitals read from record     2200.2  Type=UHF/NATURAL (state 1.1)
 
 Present basis size:      48
 Previous basis size:     14
 Previous occupation:     10
 Previous closed-shells:   9
 Previous core-orbitals:   2
 Present occupation:      10
 Present closed-shells:    9
 Present core-orbitals:    2
 Wavefunction symmetry:    1   Doublet 

 Orbital overlap <old|new>:  < 1.1| 1.1> = 0.999997   < 2.1| 2.1> = 0.999998   < 3.1| 3.1> = 0.999970   < 4.1| 4.1> = 0.999856
                             < 5.1| 5.1> = 0.999924   < 6.1| 6.1> = 0.999917   < 7.1| 7.1> = 0.999669   < 8.1| 8.1> = 0.999770
                             < 9.1| 9.1> = 0.999919   <10.1|10.1> = 0.999717

 Molecular orbital dump at record        2100.2

 ITERATION    DDIFF          GRAD             ENERGY        2-EL.EN.            DIPOLE MOMENTS         DIIS   ORB.
    1      0.000D+00      0.000D+00      -131.35362296    164.929548    0.71477   -0.85438   -0.34464    0    start
    2      0.000D+00      0.229D-01      -131.54741025    165.522408    0.55398   -0.67402   -0.26769    1    diag,B
    3      0.362D-01      0.730D-02      -131.57750195    165.948375    0.61220   -0.66537   -0.29188    2    diag,B
    4      0.197D-01      0.218D-02      -131.58165219    166.077811    0.66986   -0.69655   -0.31780    3    diag,B
    5      0.641D-02      0.782D-03      -131.58232861    166.121271    0.70069   -0.70972   -0.33149    4    diag,B
    6      0.253D-02      0.240D-03      -131.58239608    166.132826    0.70938   -0.71168   -0.33526    5    diag,B
    7      0.697D-03      0.796D-04      -131.58240454    166.134966    0.71127   -0.71040   -0.33600    6    diag,B
    8      0.212D-03      0.269D-04      -131.58240588    166.135011    0.71131   -0.70918   -0.33595    7    orth
    9      0.780D-04      0.117D-04      -131.58240627    166.134867    0.71108   -0.70829   -0.33581    8    diag,B
   10      0.354D-04      0.586D-05      -131.58240642    166.134721    0.71094   -0.70776   -0.33573    9    diag,B
   11      0.233D-04      0.253D-05      -131.58240645    166.134690    0.71096   -0.70767   -0.33573    9    diag,B
   12      0.621D-05      0.163D-05      -131.58240646    166.134649    0.71101   -0.70762   -0.33575    9    diag,B
   13      0.603D-05      0.764D-06      -131.58240647    166.134644    0.71104   -0.70760   -0.33576    9    diag,B
   14      0.331D-05      0.268D-06      -131.58240647    166.134634    0.71104   -0.70760   -0.33576    9    diag,B
   15      0.112D-05      0.693D-07      -131.58240647    166.134632    0.71104   -0.70760   -0.33576    9    diag,B
   16      0.206D-06      0.242D-07      -131.58240647    166.134630    0.71104   -0.70760   -0.33576    9    diag,B
   17      0.697D-07      0.104D-07      -131.58240647    166.134630    0.71104   -0.70760   -0.33576    9    diag,B
   18      0.337D-07      0.562D-08      -131.58240647    166.134630    0.71104   -0.70760   -0.33576    9    orth
   19      0.113D-07      0.488D-08      -131.58240647    166.134630    0.71104   -0.70760   -0.33576    9    diag,B
   20      0.113D-07      0.465D-08      -131.58240647    166.134630    0.71104   -0.70760   -0.33576    9    diag,B
   21      0.168D-07      0.450D-08      -131.58240647    166.134630    0.71104   -0.70760   -0.33576    9    diag,B
   22      0.572D-07      0.407D-08      -131.58240647    166.134630    0.71104   -0.70760   -0.33576    9    diag,B
   23      0.191D-06      0.265D-08      -131.58240647    166.134630    0.71104   -0.70760   -0.33576    9    diag,B
   24      0.195D-06      0.122D-08      -131.58240647    166.134630    0.71104   -0.70760   -0.33576    9    diag,B
   25      0.469D-07      0.804D-09      -131.58240647    166.134630    0.71104   -0.70760   -0.33576    9    diag,B
   26      0.176D-07      0.451D-09      -131.58240647    166.134630    0.71104   -0.70760   -0.33576    9    diag,B
   27      0.724D-08      0.199D-09      -131.58240647    166.134630    0.71104   -0.70760   -0.33576    9    diag,B
   28      0.149D-08      0.926D-10      -131.58240647    166.134630    0.71104   -0.70760   -0.33576    9    orth
   29      0.388D-09      0.325D-10      -131.58240647    166.134630    0.71104   -0.70760   -0.33576    9    diag,B
   30      0.100D-09      0.132D-10      -131.58240647    166.134630    0.71104   -0.70760   -0.33576    9    diag,B
   31      0.466D-10      0.463D-11      -131.58240647    166.134630    0.71104   -0.70760   -0.33576    0    orth

 Final alpha occupancy:  10
 Final beta  occupancy:   9

 !RHF STATE 1.1 Energy               -131.582406467791
 Nuclear energy                        34.96211037
 One-electron energy                 -249.61183172
 Two-electron energy                   83.06731487
 Virial quotient                       -1.00054782
 !RHF STATE 1.1 Dipole moment           0.71104269    -0.70759600    -0.33575992
 Dipole moment /Debye                   1.80717187    -1.79841185    -0.85336069

 Orbital energies:

         1.1          2.1          3.1          4.1          5.1          6.1          7.1          8.1          9.1         10.1
    -20.614638   -15.532717    -1.305421    -1.129530    -0.658463    -0.619318    -0.618336    -0.528731    -0.418774    -0.625347

        11.1         12.1
      0.165201     0.234756

 HOMO     10.1    -0.625347 =     -17.0166eV
 LUMO     11.1     0.165201 =       4.4953eV
 LUMO-HOMO         0.790548 =      21.5119eV


 **********************************************************************************************************************************
 DATASETS  * FILE   NREC   LENGTH (MB)   RECORD NAMES
              1      19       24.13       500      610      700      900      950      970     1001      129      960     1100   
                                          VAR    BASINP    GEOM    SYMINP    ZMAT    AOBASIS   BASIS     P2S    ABASIS      S 
                                         1400     1410     1200     1210     1080     1600     1650     1300     1700   
                                           T        V       H0       H01     AOSYM     SMH    MOLCAS    ERIS     OPER   

              2       6        0.65       700     1000      520     2200     1001     2100   
                                         GEOM     BASIS   MCVARS     UHF     BASIS     RHF  

 PROGRAMS   *        TOTAL       RHF       INT       UHF       INT
 CPU TIMES  *         1.20      0.25      0.35      0.08      0.39
 REAL TIME  *         1.76 SEC
 DISK USED  *        34.21 MB      
 **********************************************************************************************************************************


1PROGRAM * CCSD (Unrestricted open-shell coupled cluster)     Authors: C. Hampel, H.-J. Werner, 1991, M. Deegan, P.J. Knowles, 1992


 Convergence thresholds:  THRVAR = 1.00D-14  THRDEN = 1.00D-10

 CCSD(T)     terms to be evaluated (factor= 1.000)


 Number of core orbitals:           2 (   2 )
 Number of closed-shell orbitals:   7 (   7 )
 Number of active  orbitals:        1 (   1 )
 Number of external orbitals:      38 (  38 )

 Memory could be reduced to 1.68 Mwords without degradation in triples

 Number of N-1 electron functions:              15
 Number of N-2 electron functions:             105
 Number of singly external CSFs:               585
 Number of doubly external CSFs:            123669
 Total number of CSFs:                      124254

 Molecular orbitals read from record     2100.2  Type=RHF/CANONICAL (state 1.1)

 Integral transformation finished. Total CPU:   0.02 sec, npass=  1  Memory used:   0.75 MW

 Starting RMP2 calculation

 ITER.      SQ.NORM     CORR.ENERGY   TOTAL ENERGY   ENERGY CHANGE        DEN1      VAR(S)    VAR(P)  DIIS     TIME
   1      1.09258376    -0.34292832  -131.92533478    -0.34292832    -0.00107128  0.63D-05  0.34D-03  1  1     0.05
   2      1.09339053    -0.34407696  -131.92648342    -0.00114864    -0.00000199  0.22D-06  0.78D-06  2  2     0.05
   3      1.09341206    -0.34409105  -131.92649752    -0.00001409    -0.00000002  0.15D-07  0.43D-08  3  3     0.06
   4      1.09341270    -0.34409111  -131.92649758    -0.00000006    -0.00000000  0.47D-09  0.33D-10  4  4     0.06
   5      1.09341277    -0.34409113  -131.92649759    -0.00000002    -0.00000000  0.14D-10  0.11D-11  5  5     0.07
   6      1.09341279    -0.34409113  -131.92649760    -0.00000001    -0.00000000  0.31D-13  0.37D-13  6  6     0.08
   7      1.09341279    -0.34409113  -131.92649760     0.00000000    -0.00000000  0.14D-14  0.74D-15  6  1     0.08
   8      1.09341279    -0.34409113  -131.92649760    -0.00000000    -0.00000000  0.30D-17  0.70D-17  6  2     0.09

 Norm of t1 vector:      0.03144129      S-energy:    -0.00285316      T1 diagnostic:  0.00046950
 Norm of t2 vector:      0.30401354      P-energy:    -0.34123798
                                         Alpha-Beta:  -0.26034466
                                         Alpha-Alpha: -0.04663529
                                         Beta-Beta:   -0.03425803

 Spin contamination <S**2-Sz**2-Sz>     0.00148094
  Reference energy                   -131.582406467791
  RHF-RMP2 correlation energy          -0.344091134074
 !RHF-RMP2 energy                    -131.926497601866

 Starting UCCSD calculation

 ITER.      SQ.NORM     CORR.ENERGY   TOTAL ENERGY   ENERGY CHANGE        DEN1      VAR(S)    VAR(P)  DIIS     TIME
   1      1.10451037    -0.36230550  -131.94471196    -0.36230550    -0.00897205  0.10D-02  0.20D-02  1  1     0.27
   2      1.11405984    -0.37256102  -131.95496749    -0.01025553    -0.00064720  0.80D-04  0.19D-03  2  2     0.45
   3      1.11758245    -0.37406567  -131.95647214    -0.00150465    -0.00018182  0.17D-03  0.19D-04  3  3     0.63
   4      1.11928450    -0.37455364  -131.95696011    -0.00048797    -0.00006494  0.59D-04  0.90D-05  4  4     0.81
   5      1.12207533    -0.37493444  -131.95734091    -0.00038080    -0.00002006  0.19D-04  0.24D-05  5  5     1.00
   6      1.12412199    -0.37508847  -131.95749494    -0.00015403    -0.00000363  0.25D-05  0.67D-06  6  6     1.19
   7      1.12499971    -0.37515767  -131.95756414    -0.00006921    -0.00000071  0.27D-06  0.21D-06  6  1     1.37
   8      1.12519855    -0.37516807  -131.95757454    -0.00001040    -0.00000014  0.40D-07  0.49D-07  6  2     1.56
   9      1.12531775    -0.37517607  -131.95758254    -0.00000800    -0.00000003  0.46D-08  0.92D-08  6  3     1.74
  10      1.12529909    -0.37517194  -131.95757841     0.00000413    -0.00000001  0.22D-08  0.19D-08  6  4     1.93
  11      1.12532001    -0.37517222  -131.95757869    -0.00000028    -0.00000000  0.92D-09  0.30D-09  6  5     2.11
  12      1.12531604    -0.37517129  -131.95757776     0.00000092    -0.00000000  0.34D-09  0.65D-10  6  6     2.30
  13      1.12531276    -0.37517104  -131.95757751     0.00000025    -0.00000000  0.11D-09  0.15D-10  6  2     2.48
  14      1.12531199    -0.37517101  -131.95757748     0.00000003    -0.00000000  0.36D-10  0.70D-11  6  1     2.67
  15      1.12531179    -0.37517100  -131.95757747     0.00000001    -0.00000000  0.12D-10  0.41D-11  6  3     2.86
  16      1.12531184    -0.37517099  -131.95757746     0.00000001    -0.00000000  0.16D-11  0.89D-12  6  5     3.04
  17      1.12531186    -0.37517098  -131.95757745     0.00000001    -0.00000000  0.65D-12  0.20D-12  6  4     3.22
  18      1.12531191    -0.37517100  -131.95757746    -0.00000001    -0.00000000  0.52D-12  0.69D-13  6  6     3.40
  19      1.12531196    -0.37517101  -131.95757748    -0.00000001    -0.00000000  0.47D-12  0.23D-13  6  2     3.58
  20      1.12531200    -0.37517101  -131.95757748    -0.00000001    -0.00000000  0.43D-12  0.12D-13  6  1     3.76
  21      1.12531204    -0.37517101  -131.95757748    -0.00000000    -0.00000000  0.39D-12  0.10D-13  6  5     3.95
  22      1.12531209    -0.37517102  -131.95757748    -0.00000000    -0.00000000  0.33D-12  0.13D-13  6  3     4.13
  23      1.12531218    -0.37517102  -131.95757749    -0.00000001    -0.00000000  0.21D-12  0.15D-13  6  6     4.31
  24      1.12531223    -0.37517103  -131.95757750    -0.00000001    -0.00000000  0.11D-12  0.12D-13  6  4     4.51
  25      1.12531220    -0.37517103  -131.95757750     0.00000000    -0.00000000  0.37D-13  0.71D-14  6  6     4.69
  26      1.12531215    -0.37517103  -131.95757749     0.00000000    -0.00000000  0.72D-14  0.32D-14  6  5     4.86
  27      1.12531210    -0.37517102  -131.95757749     0.00000001    -0.00000000  0.87D-15  0.12D-14  6  2     5.04
  28      1.12531208    -0.37517102  -131.95757748     0.00000000    -0.00000000  0.28D-15  0.26D-15  6  1     5.22
  29      1.12531208    -0.37517102  -131.95757748     0.00000000    -0.00000000  0.53D-16  0.99D-16  6  3     5.39
  30      1.12531208    -0.37517102  -131.95757748    -0.00000000    -0.00000000  0.49D-16  0.12D-16  6  4     5.57
  31      1.12531207    -0.37517102  -131.95757748     0.00000000    -0.00000000  0.22D-16  0.46D-17  6  6     5.75
  32      1.12531207    -0.37517102  -131.95757748     0.00000000    -0.00000000  0.15D-16  0.13D-17  6  5     5.92

 Norm of t1 vector:      0.10155285      S-energy:    -0.00326782      T1 diagnostic:  0.01681331
                                                                       D1 diagnostic:  0.05947735
 Norm of t2 vector:      0.33911516      P-energy:    -0.37190320
                                         Alpha-Beta:  -0.29620831
                                         Alpha-Alpha: -0.04373752
                                         Beta-Beta:   -0.03195737

 Singles amplitudes (print threshold =  0.500E-01):

         I         SYM. A    A   T(IA) [Beta-Beta]

         7         1         1     -0.08362158

 Spin contamination <S**2-Sz**2-Sz>     0.00127967

 Memory could be reduced to 1.93 Mwords without degradation in triples
 

 RESULTS
 =======

  Reference energy                   -131.582406467791
  UCCSD singles energy                 -0.003267820514
  UCCSD pair energy                    -0.371903195795
  UCCSD correlation energy             -0.375171016309
  Triples (T) contribution             -0.006353303752
  Total correlation energy             -0.381524320061
 
  RHF-UCCSD energy                   -131.957577484101
  RHF-UCCSD[T] energy                -131.964397293071
  RHF-UCCSD-T energy                 -131.963786438480
 !RHF-UCCSD(T) energy                -131.963930787853

 Program statistics:

 Available memory in ccsd:               849999308
 Min. memory needed in ccsd:                410470
 Max. memory used in ccsd:                  556078
 Max. memory used in cckext:                596483 (32 integral passes)
 Max. memory used in cckint:                752516 ( 1 integral passes)



 **********************************************************************************************************************************
 DATASETS  * FILE   NREC   LENGTH (MB)   RECORD NAMES
              1      19       24.13       500      610      700      900      950      970     1001      129      960     1100   
                                          VAR    BASINP    GEOM    SYMINP    ZMAT    AOBASIS   BASIS     P2S    ABASIS      S 
                                         1400     1410     1200     1210     1080     1600     1650     1300     1700   
                                           T        V       H0       H01     AOSYM     SMH    MOLCAS    ERIS     OPER   

              2       6        0.65       700     1000      520     2200     1001     2100   
                                         GEOM     BASIS   MCVARS     UHF     BASIS     RHF  

 PROGRAMS   *        TOTAL  UCCSD(T)       RHF       INT       UHF       INT
 CPU TIMES  *         8.12      6.92      0.25      0.35      0.08      0.39
 REAL TIME  *         9.15 SEC
 DISK USED  *        64.88 MB      
 **********************************************************************************************************************************


 PROGRAM * OPT (Geometry optimization)     Authors: F. Eckert and H.-J. Werner


 BFGS update of hessian

 Running default procedure: RHF-SCF000  UCCSD(T)

 Geometry optimization using default procedure for command UCCSD(T)

 Geometry written to block  1 of record 700
 

 Generated  12 symmetrical displacements

 Number of displacements for numerical gradient:     24

 Waited for other processes for   1.05 seconds
 Starting task   7   Incrementing displacement  4 by  1.   CPU=    1.11 sec, Elapsed=    1.15 sec


 Recomputing integrals since geometry changed

1PROGRAM * SEWARD (Integral evaluation for generally contracted gaussian basis sets)     Author: Roland Lindh, 1990

 Geometry written to block  1 of record 700


 Point group  C1  



 ATOMIC COORDINATES

 NR  ATOM    CHARGE       X              Y              Z

   1  N       7.00    0.048657057    0.045395729    0.083192351
   2  H       1.00   -0.045106548   -0.875495266    1.754515221
   3  H       1.00    1.790533188   -0.213167615   -0.654028061
   4  H       1.00   -1.245540821   -0.740589507   -1.081506112
   5  O       8.00   -0.731905781   -4.788309733    0.176053687
   6  H       1.00    0.925363869   -5.106170982   -0.536873900

 Bond lengths in Bohr (Angstrom)

 1-2  1.910537091  1-3  1.909052485  1-4  1.910299308  5-6  1.831896342
     ( 1.011012689)     ( 1.010227070)     ( 1.010886860)     ( 0.969397797)

 Bond angles

  2-1-3  108.50064684   2-1-4  107.56497405   3-1-4  109.08582734

 NUCLEAR CHARGE:                   19
 NUMBER OF PRIMITIVE AOS:          82
 NUMBER OF SYMMETRY AOS:           80
 NUMBER OF CONTRACTIONS:           48   (  48A   )
 NUMBER OF CORE ORBITALS:           2   (   2A   )
 NUMBER OF VALENCE ORBITALS:       12   (  12A   )


 NUCLEAR REPULSION ENERGY   34.96203511

 Eigenvalues of metric

         1 0.157E-01 0.251E-01 0.400E-01 0.406E-01 0.420E-01 0.503E-01 0.714E-01 0.747E-01


 Contracted 2-electron integrals neglected if value below      1.0D-14
 AO integral compression algorithm  1   Integral accuracy      1.0D-14

     6.029 MB (compressed) written to integral file ( 89.8%)


 NUMBER OF SORTED TWO-ELECTRON INTEGRALS:     692076.     BUFFER LENGTH:  32768
 NUMBER OF SEGMENTS:   1  SEGMENT LENGTH:     692076      RECORD LENGTH: 524288

 Memory used in sort:       1.25 MW

 SORT1 READ      848924. AND WROTE      682150. INTEGRALS IN      2 RECORDS. CPU TIME:     0.01 SEC, REAL TIME:     0.02 SEC
 SORT2 READ      682150. AND WROTE      692076. INTEGRALS IN     23 RECORDS. CPU TIME:     0.03 SEC, REAL TIME:     0.04 SEC

 FILE SIZES:   FILE 1:    25.3 MBYTE,  FILE 4:     8.4 MBYTE,   TOTAL:     33.7 MBYTE

 OPERATOR DM      FOR CENTER  0  COORDINATES:    0.000000    0.000000    0.000000
1PROGRAM * RHF-SCF (OPEN SHELL)       Authors: W. Meyer, H.-J. Werner


 NUMBER OF ELECTRONS:      10+    9-    SPACE SYMMETRY=1    SPIN SYMMETRY: Doublet 
 CONVERGENCE THRESHOLDS:    1.00E-10 (Density)    1.00E-11 (Energy)
 MAX. NUMBER OF ITERATIONS:      300
 INTERPOLATION TYPE:            DIIS
 INTERPOLATION STEPS:              2 (START)      1 (STEP)
 LEVEL SHIFTS:                 -0.60 (CLOSED) -0.30 (OPEN) 

 Number of closed-shell orbitals:    9 (   9 )
 Number of open-shell orbitals:      1 (   1 )


 Molecular orbitals read from record     2100.2  Type=RHF/CANONICAL (state 1.1)

 Molecular orbital dump at record        2100.1

 ITERATION    DDIFF          GRAD             ENERGY        2-EL.EN.            DIPOLE MOMENTS         DIIS   ORB.
    1      0.000D+00      0.000D+00      -131.58239816    166.134557    0.71231   -0.70776   -0.33275    0    start
    2      0.000D+00      0.875D-04      -131.58240118    166.134507    0.71259   -0.70779   -0.33208    1    diag,B
    3      0.140D-03      0.341D-04      -131.58240192    166.134506    0.71269   -0.70781   -0.33182    2    diag,B
    4      0.855D-04      0.853D-05      -131.58240200    166.134501    0.71263   -0.70780   -0.33196    3    diag,B
    5      0.216D-04      0.249D-05      -131.58240200    166.134503    0.71259   -0.70780   -0.33205    4    diag,B
    6      0.629D-05      0.904D-06      -131.58240201    166.134502    0.71258   -0.70779   -0.33208    5    diag,B
    7      0.305D-05      0.298D-06      -131.58240201    166.134503    0.71258   -0.70779   -0.33208    6    diag,B
    8      0.105D-05      0.116D-06      -131.58240201    166.134502    0.71258   -0.70779   -0.33208    7    orth
    9      0.357D-06      0.753D-07      -131.58240201    166.134503    0.71258   -0.70780   -0.33208    8    diag,B
   10      0.129D-06      0.714D-07      -131.58240201    166.134502    0.71258   -0.70780   -0.33208    9    diag,B
   11      0.162D-06      0.697D-07      -131.58240201    166.134503    0.71258   -0.70780   -0.33208    9    diag,B
   12      0.357D-06      0.669D-07      -131.58240201    166.134503    0.71258   -0.70780   -0.33208    9    diag,B
   13      0.173D-05      0.536D-07      -131.58240201    166.134503    0.71258   -0.70780   -0.33209    9    diag,B
   14      0.367D-05      0.276D-07      -131.58240201    166.134503    0.71258   -0.70780   -0.33209    9    diag,B
   15      0.151D-05      0.146D-07      -131.58240201    166.134503    0.71258   -0.70780   -0.33209    9    diag,B
   16      0.521D-06      0.796D-08      -131.58240201    166.134503    0.71258   -0.70779   -0.33209    9    diag,B
   17      0.139D-06      0.503D-08      -131.58240201    166.134503    0.71258   -0.70779   -0.33209    9    diag,B
   18      0.604D-07      0.191D-08      -131.58240201    166.134503    0.71258   -0.70779   -0.33209    9    orth
   19      0.158D-07      0.558D-09      -131.58240201    166.134503    0.71258   -0.70779   -0.33209    9    diag,B
   20      0.232D-08      0.191D-09      -131.58240201    166.134503    0.71258   -0.70779   -0.33209    9    diag,B
   21      0.626D-09      0.624D-10      -131.58240201    166.134503    0.71258   -0.70779   -0.33209    9    diag,B
   22      0.195D-09      0.262D-10      -131.58240201    166.134503    0.71258   -0.70779   -0.33209    9    diag,B
   23      0.848D-10      0.124D-10      -131.58240201    166.134503    0.71258   -0.70779   -0.33209    0    orth

 Final alpha occupancy:  10
 Final beta  occupancy:   9

 !RHF STATE 1.1 Energy               -131.582402006599
 Nuclear energy                        34.96203511
 One-electron energy                 -249.61168838
 Two-electron energy                   83.06725126
 Virial quotient                       -1.00054807
 !RHF STATE 1.1 Dipole moment           0.71257564    -0.70779439    -0.33209337
 Dipole moment /Debye                   1.81106801    -1.79891607    -0.84404188

 Orbital energies:

         1.1          2.1          3.1          4.1          5.1          6.1          7.1          8.1          9.1         10.1
    -20.614638   -15.532719    -1.305421    -1.129528    -0.658464    -0.619660    -0.617984    -0.528731    -0.418775    -0.625347

        11.1         12.1
      0.165200     0.234754

 HOMO     10.1    -0.625347 =     -17.0166eV
 LUMO     11.1     0.165200 =       4.4953eV
 LUMO-HOMO         0.790547 =      21.5119eV


 **********************************************************************************************************************************
 DATASETS  * FILE   NREC   LENGTH (MB)   RECORD NAMES
              1      20       24.30       500      610      700      900      950      970     1001      129      960     1100   
                                          VAR    BASINP    GEOM    SYMINP    ZMAT    AOBASIS   BASIS     P2S    ABASIS      S 
                                         1400     1410     1200     1210     1080     1600     1650     1300     1700     2100   
                                           T        V       H0       H01     AOSYM     SMH    MOLCAS    ERIS     OPER      RHF  

              2       7        0.68       700     1000      520     2200     1001     2100     5600   
                                         GEOM     BASIS   MCVARS     UHF     BASIS     RHF     GINFO   

 PROGRAMS   *        TOTAL       RHF  UCCSD(T)       RHF       INT       UHF       INT
 CPU TIMES  *        10.69      0.61      6.92      0.25      0.35      0.08      0.39
 REAL TIME  *        13.00 SEC
 DISK USED  *        64.88 MB      
 **********************************************************************************************************************************


1PROGRAM * CCSD (Unrestricted open-shell coupled cluster)     Authors: C. Hampel, H.-J. Werner, 1991, M. Deegan, P.J. Knowles, 1992


 Convergence thresholds:  THRVAR = 1.00D-14  THRDEN = 1.00D-10

 CCSD(T)     terms to be evaluated (factor= 1.000)


 Number of core orbitals:           2 (   2 )
 Number of closed-shell orbitals:   7 (   7 )
 Number of active  orbitals:        1 (   1 )
 Number of external orbitals:      38 (  38 )

 Memory could be reduced to 1.85 Mwords without degradation in triples

 Number of N-1 electron functions:              15
 Number of N-2 electron functions:             105
 Number of singly external CSFs:               585
 Number of doubly external CSFs:            123669
 Total number of CSFs:                      124254

 Molecular orbitals read from record     2100.1  Type=RHF/CANONICAL (state 1.1)

 Integral transformation finished. Total CPU:   0.04 sec, npass=  1  Memory used:   0.75 MW

 Starting RMP2 calculation

 ITER.      SQ.NORM     CORR.ENERGY   TOTAL ENERGY   ENERGY CHANGE        DEN1      VAR(S)    VAR(P)  DIIS     TIME
   1      1.09258449    -0.34292930  -131.92533130    -0.34292930    -0.00107131  0.63D-05  0.34D-03  1  1     0.05
   2      1.09339130    -0.34407798  -131.92647998    -0.00114868    -0.00000199  0.22D-06  0.78D-06  2  2     0.05
   3      1.09341283    -0.34409207  -131.92649408    -0.00001410    -0.00000002  0.15D-07  0.43D-08  3  3     0.06
   4      1.09341347    -0.34409213  -131.92649414    -0.00000006    -0.00000000  0.47D-09  0.33D-10  4  4     0.06
   5      1.09341355    -0.34409215  -131.92649416    -0.00000002    -0.00000000  0.14D-10  0.11D-11  5  5     0.07
   6      1.09341356    -0.34409216  -131.92649416    -0.00000001    -0.00000000  0.31D-13  0.37D-13  6  6     0.08
   7      1.09341356    -0.34409216  -131.92649416     0.00000000    -0.00000000  0.14D-14  0.74D-15  6  1     0.08
   8      1.09341356    -0.34409216  -131.92649416    -0.00000000    -0.00000000  0.30D-17  0.70D-17  6  2     0.09

 Norm of t1 vector:      0.03144134      S-energy:    -0.00285316      T1 diagnostic:  0.00046951
 Norm of t2 vector:      0.30401481      P-energy:    -0.34123900
                                         Alpha-Beta:  -0.26034543
                                         Alpha-Alpha: -0.04663541
                                         Beta-Beta:   -0.03425816

 Spin contamination <S**2-Sz**2-Sz>     0.00148093
  Reference energy                   -131.582402006599
  RHF-RMP2 correlation energy          -0.344092157676
 !RHF-RMP2 energy                    -131.926494164275

 Starting UCCSD calculation

 ITER.      SQ.NORM     CORR.ENERGY   TOTAL ENERGY   ENERGY CHANGE        DEN1      VAR(S)    VAR(P)  DIIS     TIME
   1      1.10451109    -0.36230639  -131.94470839    -0.36230639    -0.00897213  0.10D-02  0.20D-02  1  1     0.27
   2      1.11406075    -0.37256202  -131.95496403    -0.01025563    -0.00064721  0.80D-04  0.19D-03  2  2     0.45
   3      1.11758346    -0.37406670  -131.95646871    -0.00150468    -0.00018182  0.17D-03  0.19D-04  3  3     0.63
   4      1.11928556    -0.37455468  -131.95695668    -0.00048798    -0.00006494  0.59D-04  0.90D-05  4  4     0.81
   5      1.12207640    -0.37493548  -131.95733749    -0.00038080    -0.00002007  0.19D-04  0.24D-05  5  5     0.99
   6      1.12412300    -0.37508951  -131.95749152    -0.00015403    -0.00000363  0.25D-05  0.67D-06  6  6     1.17
   7      1.12500092    -0.37515873  -131.95756074    -0.00006922    -0.00000071  0.27D-06  0.21D-06  6  1     1.36
   8      1.12519976    -0.37516913  -131.95757113    -0.00001039    -0.00000014  0.40D-07  0.49D-07  6  2     1.54
   9      1.12531902    -0.37517713  -131.95757914    -0.00000800    -0.00000003  0.46D-08  0.92D-08  6  3     1.72
  10      1.12530032    -0.37517300  -131.95757500     0.00000413    -0.00000001  0.22D-08  0.19D-08  6  4     1.90
  11      1.12532126    -0.37517328  -131.95757528    -0.00000028    -0.00000000  0.92D-09  0.30D-09  6  5     2.09
  12      1.12531728    -0.37517235  -131.95757436     0.00000093    -0.00000000  0.34D-09  0.65D-10  6  6     2.27
  13      1.12531400    -0.37517210  -131.95757411     0.00000025    -0.00000000  0.11D-09  0.15D-10  6  2     2.45
  14      1.12531323    -0.37517207  -131.95757407     0.00000003    -0.00000000  0.36D-10  0.70D-11  6  1     2.63
  15      1.12531303    -0.37517206  -131.95757407     0.00000001    -0.00000000  0.12D-10  0.41D-11  6  3     2.82
  16      1.12531308    -0.37517205  -131.95757406     0.00000001    -0.00000000  0.15D-11  0.88D-12  6  5     3.00
  17      1.12531311    -0.37517204  -131.95757405     0.00000001    -0.00000000  0.54D-12  0.19D-12  6  4     3.19
  18      1.12531316    -0.37517205  -131.95757406    -0.00000001    -0.00000000  0.42D-12  0.67D-13  6  6     3.37
  19      1.12531321    -0.37517207  -131.95757407    -0.00000001    -0.00000000  0.37D-12  0.21D-13  6  2     3.55
  20      1.12531324    -0.37517207  -131.95757408    -0.00000001    -0.00000000  0.33D-12  0.10D-13  6  1     3.73
  21      1.12531327    -0.37517207  -131.95757408    -0.00000000    -0.00000000  0.30D-12  0.81D-14  6  5     3.91
  22      1.12531332    -0.37517207  -131.95757408    -0.00000000    -0.00000000  0.26D-12  0.95D-14  6  3     4.10
  23      1.12531340    -0.37517208  -131.95757409    -0.00000001    -0.00000000  0.18D-12  0.11D-13  6  6     4.28
  24      1.12531345    -0.37517209  -131.95757409    -0.00000001    -0.00000000  0.10D-12  0.96D-14  6  4     4.46
  25      1.12531343    -0.37517209  -131.95757409     0.00000000    -0.00000000  0.36D-13  0.61D-14  6  6     4.64
  26      1.12531338    -0.37517208  -131.95757409     0.00000000    -0.00000000  0.70D-14  0.31D-14  6  5     4.82
  27      1.12531334    -0.37517208  -131.95757408     0.00000001    -0.00000000  0.95D-15  0.11D-14  6  2     5.01
  28      1.12531332    -0.37517207  -131.95757408     0.00000000    -0.00000000  0.25D-15  0.26D-15  6  1     5.18
  29      1.12531332    -0.37517207  -131.95757408     0.00000000    -0.00000000  0.56D-16  0.94D-16  6  3     5.36
  30      1.12531331    -0.37517207  -131.95757408    -0.00000000    -0.00000000  0.32D-16  0.11D-16  6  5     5.55

 Norm of t1 vector:      0.10155384      S-energy:    -0.00326783      T1 diagnostic:  0.01681349
                                                                       D1 diagnostic:  0.05947800
 Norm of t2 vector:      0.33911669      P-energy:    -0.37190425
                                         Alpha-Beta:  -0.29620923
                                         Alpha-Alpha: -0.04373757
                                         Beta-Beta:   -0.03195745

 Singles amplitudes (print threshold =  0.500E-01):

         I         SYM. A    A   T(IA) [Beta-Beta]

         7         1         1     -0.08362250

 Spin contamination <S**2-Sz**2-Sz>     0.00127969

 Memory could be reduced to 1.94 Mwords without degradation in triples
 

 RESULTS
 =======

  Reference energy                   -131.582402006599
  UCCSD singles energy                 -0.003267825871
  UCCSD pair energy                    -0.371904248408
  UCCSD correlation energy             -0.375172074280
  Triples (T) contribution             -0.006353402741
  Total correlation energy             -0.381525477020
 
  RHF-UCCSD energy                   -131.957574080878
  RHF-UCCSD[T] energy                -131.964393998915
  RHF-UCCSD-T energy                 -131.963783131853
 !RHF-UCCSD(T) energy                -131.963927483619

 Program statistics:

 Available memory in ccsd:               849997862
 Min. memory needed in ccsd:                410470
 Max. memory used in ccsd:                  556078
 Max. memory used in cckext:                596483 (30 integral passes)
 Max. memory used in cckint:                752516 ( 1 integral passes)



 **********************************************************************************************************************************
 DATASETS  * FILE   NREC   LENGTH (MB)   RECORD NAMES
              1      20       24.30       500      610      700      900      950      970     1001      129      960     1100   
                                          VAR    BASINP    GEOM    SYMINP    ZMAT    AOBASIS   BASIS     P2S    ABASIS      S 
                                         1400     1410     1200     1210     1080     1600     1650     1300     1700     2100   
                                           T        V       H0       H01     AOSYM     SMH    MOLCAS    ERIS     OPER      RHF  

              2       7        0.68       700     1000      520     2200     1001     2100     5600   
                                         GEOM     BASIS   MCVARS     UHF     BASIS     RHF     GINFO   

 PROGRAMS   *        TOTAL  UCCSD(T)  UCCSD(T)       RHF       INT       UHF       INT
 CPU TIMES  *        17.28      6.58      6.92      0.25      0.35      0.08      0.39
 REAL TIME  *        20.00 SEC
 DISK USED  *        65.08 MB      
 **********************************************************************************************************************************
 Starting task  24   Incrementing displacement 12 by -1.   CPU=    8.79 sec, Elapsed=    8.83 sec


 Recomputing integrals since geometry changed

1PROGRAM * SEWARD (Integral evaluation for generally contracted gaussian basis sets)     Author: Roland Lindh, 1990

 Geometry written to block  1 of record 700


 Point group  C1  



 ATOMIC COORDINATES

 NR  ATOM    CHARGE       X              Y              Z

   1  N       7.00    0.049469529    0.045046606    0.086346864
   2  H       1.00   -0.048471120   -0.879548674    1.754724889
   3  H       1.00    1.788942436   -0.212960406   -0.658639497
   4  H       1.00   -1.242636028   -0.736322369   -1.083180450
   5  O       8.00   -0.737133619   -4.787122152    0.181500820
   6  H       1.00    0.931829765   -5.107430380   -0.539399441

 Bond lengths in Bohr (Angstrom)

 1-2  1.909961790  1-3  1.909800589  1-4  1.909939366  5-6  1.846004693
     ( 1.010708253)     ( 1.010622949)     ( 1.010696387)     ( 0.976863615)

 Bond angles

  2-1-3  108.78706955   2-1-4  107.58674299   3-1-4  108.78680270

 NUCLEAR CHARGE:                   19
 NUMBER OF PRIMITIVE AOS:          82
 NUMBER OF SYMMETRY AOS:           80
 NUMBER OF CONTRACTIONS:           48   (  48A   )
 NUMBER OF CORE ORBITALS:           2   (   2A   )
 NUMBER OF VALENCE ORBITALS:       12   (  12A   )


 NUCLEAR REPULSION ENERGY   34.92960532

 Eigenvalues of metric

         1 0.157E-01 0.252E-01 0.400E-01 0.405E-01 0.421E-01 0.512E-01 0.714E-01 0.748E-01


 Contracted 2-electron integrals neglected if value below      1.0D-14
 AO integral compression algorithm  1   Integral accuracy      1.0D-14

     6.029 MB (compressed) written to integral file ( 89.9%)


 NUMBER OF SORTED TWO-ELECTRON INTEGRALS:     692076.     BUFFER LENGTH:  32768
 NUMBER OF SEGMENTS:   1  SEGMENT LENGTH:     692076      RECORD LENGTH: 524288

 Memory used in sort:       1.25 MW

 SORT1 READ      848924. AND WROTE      682149. INTEGRALS IN      2 RECORDS. CPU TIME:     0.01 SEC, REAL TIME:     0.02 SEC
 SORT2 READ      682149. AND WROTE      692076. INTEGRALS IN     23 RECORDS. CPU TIME:     0.04 SEC, REAL TIME:     0.04 SEC

 FILE SIZES:   FILE 1:    25.3 MBYTE,  FILE 4:     8.4 MBYTE,   TOTAL:     33.7 MBYTE

 OPERATOR DM      FOR CENTER  0  COORDINATES:    0.000000    0.000000    0.000000
1PROGRAM * RHF-SCF (OPEN SHELL)       Authors: W. Meyer, H.-J. Werner


 NUMBER OF ELECTRONS:      10+    9-    SPACE SYMMETRY=1    SPIN SYMMETRY: Doublet 
 CONVERGENCE THRESHOLDS:    1.00E-10 (Density)    1.00E-11 (Energy)
 MAX. NUMBER OF ITERATIONS:      300
 INTERPOLATION TYPE:            DIIS
 INTERPOLATION STEPS:              2 (START)      1 (STEP)
 LEVEL SHIFTS:                 -0.60 (CLOSED) -0.30 (OPEN) 

 Number of closed-shell orbitals:    9 (   9 )
 Number of open-shell orbitals:      1 (   1 )


 Molecular orbitals read from record     2100.2  Type=RHF/CANONICAL (state 1.1)

 Molecular orbital dump at record        2100.1

 ITERATION    DDIFF          GRAD             ENERGY        2-EL.EN.            DIPOLE MOMENTS         DIIS   ORB.
    1      0.000D+00      0.000D+00      -131.58213992    166.101271    0.71405   -0.70811   -0.33705    0    start
    2      0.000D+00      0.204D-03      -131.58215572    166.089441    0.71520   -0.70858   -0.33756    1    diag,B
    3      0.487D-03      0.719D-04      -131.58215861    166.088089    0.71472   -0.70858   -0.33736    2    diag,B
    4      0.238D-03      0.195D-04      -131.58215896    166.086965    0.71399   -0.70847   -0.33705    3    diag,B
    5      0.512D-04      0.822D-05      -131.58215905    166.086640    0.71350   -0.70836   -0.33684    4    diag,B
    6      0.239D-04      0.241D-05      -131.58215906    166.086471    0.71336   -0.70832   -0.33678    5    diag,B
    7      0.703D-05      0.713D-06      -131.58215906    166.086464    0.71334   -0.70831   -0.33677    6    diag,B
    8      0.159D-05      0.358D-06      -131.58215906    166.086474    0.71334   -0.70831   -0.33677    7    orth
    9      0.843D-06      0.230D-06      -131.58215906    166.086483    0.71335   -0.70832   -0.33677    8    diag,B
   10      0.888D-06      0.105D-06      -131.58215906    166.086487    0.71334   -0.70833   -0.33677    9    diag,B
   11      0.478D-06      0.350D-07      -131.58215906    166.086486    0.71334   -0.70833   -0.33677    9    diag,B
   12      0.126D-06      0.130D-07      -131.58215906    166.086486    0.71334   -0.70833   -0.33677    9    diag,B
   13      0.466D-07      0.398D-08      -131.58215906    166.086486    0.71334   -0.70833   -0.33677    9    diag,B
   14      0.118D-07      0.173D-08      -131.58215906    166.086486    0.71334   -0.70833   -0.33677    9    diag,B
   15      0.588D-08      0.635D-09      -131.58215906    166.086486    0.71334   -0.70833   -0.33677    9    diag,B
   16      0.208D-08      0.342D-09      -131.58215906    166.086486    0.71334   -0.70833   -0.33677    9    diag,B
   17      0.617D-09      0.312D-09      -131.58215906    166.086486    0.71334   -0.70833   -0.33677    9    diag,B
   18      0.687D-09      0.301D-09      -131.58215906    166.086486    0.71334   -0.70833   -0.33677    9    orth
   19      0.102D-08      0.292D-09      -131.58215906    166.086486    0.71334   -0.70833   -0.33677    9    diag,B
   20      0.565D-08      0.248D-09      -131.58215906    166.086486    0.71334   -0.70833   -0.33677    9    diag,B
   21      0.189D-07      0.109D-09      -131.58215906    166.086486    0.71334   -0.70833   -0.33677    9    diag,B
   22      0.674D-08      0.530D-10      -131.58215906    166.086486    0.71334   -0.70833   -0.33677    9    diag,B
   23      0.156D-08      0.310D-10      -131.58215906    166.086486    0.71334   -0.70833   -0.33677    9    diag,B
   24      0.509D-09      0.149D-10      -131.58215906    166.086486    0.71334   -0.70833   -0.33677    9    diag,B
   25      0.139D-09      0.797D-11      -131.58215906    166.086486    0.71334   -0.70833   -0.33677    9    diag,B
   26      0.455D-10      0.349D-11      -131.58215906    166.086486    0.71334   -0.70833   -0.33677    0    orth

 Final alpha occupancy:  10
 Final beta  occupancy:   9

 !RHF STATE 1.1 Energy               -131.582159058153
 Nuclear energy                        34.92960532
 One-electron energy                 -249.55500729
 Two-electron energy                   83.04324291
 Virial quotient                       -1.00064746
 !RHF STATE 1.1 Dipole moment           0.71334054    -0.70833295    -0.33676716
 Dipole moment /Debye                   1.81301205    -1.80028485    -0.85592067

 Orbital energies:

         1.1          2.1          3.1          4.1          5.1          6.1          7.1          8.1          9.1         10.1
    -20.615238   -15.532662    -1.303131    -1.129474    -0.656590    -0.619416    -0.618020    -0.528453    -0.418722    -0.625108

        11.1         12.1
      0.164358     0.234173

 HOMO     10.1    -0.625108 =     -17.0100eV
 LUMO     11.1     0.164358 =       4.4724eV
 LUMO-HOMO         0.789466 =      21.4825eV


 **********************************************************************************************************************************
 DATASETS  * FILE   NREC   LENGTH (MB)   RECORD NAMES
              1      20       24.30       500      610      700      900      950      970     1001      129      960     1100   
                                          VAR    BASINP    GEOM    SYMINP    ZMAT    AOBASIS   BASIS     P2S    ABASIS      S 
                                         1400     1410     1200     1210     1080     1600     1650     1300     1700     2100   
                                           T        V       H0       H01     AOSYM     SMH    MOLCAS    ERIS     OPER      RHF  

              2       7        0.68       700     1000      520     2200     1001     2100     5600   
                                         GEOM     BASIS   MCVARS     UHF     BASIS     RHF     GINFO   

 PROGRAMS   *        TOTAL       RHF  UCCSD(T)       RHF       INT       UHF       INT
 CPU TIMES  *        17.79      0.50      6.92      0.25      0.35      0.08      0.39
 REAL TIME  *        20.58 SEC
 DISK USED  *        65.08 MB      
 **********************************************************************************************************************************


1PROGRAM * CCSD (Unrestricted open-shell coupled cluster)     Authors: C. Hampel, H.-J. Werner, 1991, M. Deegan, P.J. Knowles, 1992


 Convergence thresholds:  THRVAR = 1.00D-14  THRDEN = 1.00D-10

 CCSD(T)     terms to be evaluated (factor= 1.000)


 Number of core orbitals:           2 (   2 )
 Number of closed-shell orbitals:   7 (   7 )
 Number of active  orbitals:        1 (   1 )
 Number of external orbitals:      38 (  38 )

 Memory could be reduced to 1.85 Mwords without degradation in triples

 Number of N-1 electron functions:              15
 Number of N-2 electron functions:             105
 Number of singly external CSFs:               585
 Number of doubly external CSFs:            123669
 Total number of CSFs:                      124254

 Molecular orbitals read from record     2100.1  Type=RHF/CANONICAL (state 1.1)

 Integral transformation finished. Total CPU:   0.03 sec, npass=  1  Memory used:   0.75 MW

 Starting RMP2 calculation

 ITER.      SQ.NORM     CORR.ENERGY   TOTAL ENERGY   ENERGY CHANGE        DEN1      VAR(S)    VAR(P)  DIIS     TIME
   1      1.09278350    -0.34318890  -131.92534796    -0.34318890    -0.00107428  0.63D-05  0.34D-03  1  1     0.04
   2      1.09359361    -0.34434083  -131.92649988    -0.00115192    -0.00000199  0.22D-06  0.78D-06  2  2     0.05
   3      1.09361521    -0.34435495  -131.92651401    -0.00001413    -0.00000002  0.15D-07  0.43D-08  3  3     0.05
   4      1.09361585    -0.34435501  -131.92651407    -0.00000006    -0.00000000  0.47D-09  0.33D-10  4  4     0.06
   5      1.09361592    -0.34435503  -131.92651409    -0.00000002    -0.00000000  0.14D-10  0.11D-11  5  5     0.06
   6      1.09361593    -0.34435504  -131.92651409    -0.00000001    -0.00000000  0.31D-13  0.37D-13  6  6     0.07
   7      1.09361593    -0.34435504  -131.92651409     0.00000000    -0.00000000  0.14D-14  0.74D-15  6  1     0.07
   8      1.09361593    -0.34435504  -131.92651409    -0.00000000    -0.00000000  0.30D-17  0.71D-17  6  2     0.08

 Norm of t1 vector:      0.03147921      S-energy:    -0.00285536      T1 diagnostic:  0.00046916
 Norm of t2 vector:      0.30434355      P-energy:    -0.34149968
                                         Alpha-Beta:  -0.26056700
                                         Alpha-Alpha: -0.04665705
                                         Beta-Beta:   -0.03427563

 Spin contamination <S**2-Sz**2-Sz>     0.00148941
  Reference energy                   -131.582159058154
  RHF-RMP2 correlation energy          -0.344355036146
 !RHF-RMP2 energy                    -131.926514094300

 Starting UCCSD calculation

 ITER.      SQ.NORM     CORR.ENERGY   TOTAL ENERGY   ENERGY CHANGE        DEN1      VAR(S)    VAR(P)  DIIS     TIME
   1      1.10473971    -0.36255898  -131.94471804    -0.36255898    -0.00900081  0.10D-02  0.20D-02  1  1     0.26
   2      1.11435139    -0.37284994  -131.95500899    -0.01029096    -0.00065197  0.80D-04  0.19D-03  2  2     0.44
   3      1.11790148    -0.37436541  -131.95652447    -0.00151548    -0.00018296  0.17D-03  0.19D-04  3  3     0.62
   4      1.11961916    -0.37485834  -131.95701739    -0.00049292    -0.00006507  0.59D-04  0.91D-05  4  4     0.80
   5      1.12241231    -0.37524036  -131.95739941    -0.00038202    -0.00002013  0.19D-04  0.24D-05  5  5     0.98
   6      1.12445329    -0.37539418  -131.95755324    -0.00015383    -0.00000368  0.26D-05  0.67D-06  6  6     1.17
   7      1.12533399    -0.37546368  -131.95762274    -0.00006950    -0.00000073  0.28D-06  0.21D-06  6  1     1.35
   8      1.12553680    -0.37547429  -131.95763335    -0.00001061    -0.00000015  0.42D-07  0.51D-07  6  2     1.53
   9      1.12565878    -0.37548247  -131.95764153    -0.00000818    -0.00000003  0.44D-08  0.97D-08  6  3     1.71
  10      1.12564057    -0.37547833  -131.95763738     0.00000415    -0.00000001  0.21D-08  0.20D-08  6  4     1.89
  11      1.12566172    -0.37547858  -131.95763764    -0.00000025    -0.00000000  0.88D-09  0.32D-09  6  5     2.07
  12      1.12565776    -0.37547764  -131.95763670     0.00000094    -0.00000000  0.32D-09  0.67D-10  6  6     2.26
  13      1.12565448    -0.37547738  -131.95763644     0.00000026    -0.00000000  0.11D-09  0.14D-10  6  2     2.44
  14      1.12565370    -0.37547734  -131.95763640     0.00000004    -0.00000000  0.36D-10  0.64D-11  6  1     2.62
  15      1.12565347    -0.37547733  -131.95763639     0.00000001    -0.00000000  0.13D-10  0.39D-11  6  3     2.81
  16      1.12565347    -0.37547732  -131.95763638     0.00000001    -0.00000000  0.18D-11  0.88D-12  6  5     2.99
  17      1.12565349    -0.37547731  -131.95763637     0.00000001    -0.00000000  0.67D-12  0.19D-12  6  4     3.17
  18      1.12565355    -0.37547733  -131.95763638    -0.00000001    -0.00000000  0.54D-12  0.68D-13  6  6     3.35
  19      1.12565360    -0.37547734  -131.95763640    -0.00000001    -0.00000000  0.48D-12  0.23D-13  6  2     3.53
  20      1.12565364    -0.37547734  -131.95763640    -0.00000001    -0.00000000  0.43D-12  0.13D-13  6  1     3.72
  21      1.12565369    -0.37547734  -131.95763640    -0.00000000    -0.00000000  0.39D-12  0.11D-13  6  5     3.90
  22      1.12565375    -0.37547735  -131.95763640    -0.00000000    -0.00000000  0.33D-12  0.13D-13  6  3     4.08
  23      1.12565384    -0.37547735  -131.95763641    -0.00000001    -0.00000000  0.22D-12  0.14D-13  6  6     4.26
  24      1.12565389    -0.37547736  -131.95763642    -0.00000001    -0.00000000  0.12D-12  0.12D-13  6  4     4.44
  25      1.12565386    -0.37547736  -131.95763642     0.00000000    -0.00000000  0.42D-13  0.81D-14  6  6     4.62
  26      1.12565380    -0.37547736  -131.95763641     0.00000000    -0.00000000  0.81D-14  0.38D-14  6  5     4.80
  27      1.12565375    -0.37547735  -131.95763641     0.00000001    -0.00000000  0.97D-15  0.14D-14  6  2     4.99
  28      1.12565374    -0.37547735  -131.95763641     0.00000000    -0.00000000  0.27D-15  0.31D-15  6  1     5.16
  29      1.12565373    -0.37547735  -131.95763640     0.00000000    -0.00000000  0.45D-16  0.12D-15  6  3     5.35
  30      1.12565373    -0.37547735  -131.95763641    -0.00000000    -0.00000000  0.48D-16  0.14D-16  6  4     5.53
  31      1.12565373    -0.37547735  -131.95763640     0.00000000    -0.00000000  0.22D-16  0.51D-17  6  6     5.71

 Norm of t1 vector:      0.10169624      S-energy:    -0.00327313      T1 diagnostic:  0.01682796
                                                                       D1 diagnostic:  0.05946628
 Norm of t2 vector:      0.33957562      P-energy:    -0.37220422
                                         Alpha-Beta:  -0.29650049
                                         Alpha-Alpha: -0.04374144
                                         Beta-Beta:   -0.03196229

 Singles amplitudes (print threshold =  0.500E-01):

         I         SYM. A    A   T(IA) [Beta-Beta]

         7         1         1     -0.08360060

 Spin contamination <S**2-Sz**2-Sz>     0.00128557

 Memory could be reduced to 1.94 Mwords without degradation in triples
 

 RESULTS
 =======

  Reference energy                   -131.582159058154
  UCCSD singles energy                 -0.003273126845
  UCCSD pair energy                    -0.372204219938
  UCCSD correlation energy             -0.375477346783
  Triples (T) contribution             -0.006372108964
  Total correlation energy             -0.381849455747
 
  RHF-UCCSD energy                   -131.957636404936
  RHF-UCCSD[T] energy                -131.964477101515
  RHF-UCCSD-T energy                 -131.963863318739
 !RHF-UCCSD(T) energy                -131.964008513901

 Program statistics:

 Available memory in ccsd:               849997862
 Min. memory needed in ccsd:                410470
 Max. memory used in ccsd:                  556078
 Max. memory used in cckext:                596483 (31 integral passes)
 Max. memory used in cckint:                752516 ( 1 integral passes)



 **********************************************************************************************************************************
 DATASETS  * FILE   NREC   LENGTH (MB)   RECORD NAMES
              1      20       24.30       500      610      700      900      950      970     1001      129      960     1100   
                                          VAR    BASINP    GEOM    SYMINP    ZMAT    AOBASIS   BASIS     P2S    ABASIS      S 
                                         1400     1410     1200     1210     1080     1600     1650     1300     1700     2100   
                                           T        V       H0       H01     AOSYM     SMH    MOLCAS    ERIS     OPER      RHF  

              2       7        0.68       700     1000      520     2200     1001     2100     5600   
                                         GEOM     BASIS   MCVARS     UHF     BASIS     RHF     GINFO   

 PROGRAMS   *        TOTAL  UCCSD(T)  UCCSD(T)       RHF       INT       UHF       INT
 CPU TIMES  *        24.55      6.75      6.92      0.25      0.35      0.08      0.39
 REAL TIME  *        27.77 SEC
 DISK USED  *        65.09 MB      
 **********************************************************************************************************************************

 Tasks on processor    0 finished.  CPU=     16.55 sec, Elapsed=     16.60 sec. Waiting for other processors...
 Tasks on  14 processors finished.  CPU=    230.95 sec, Elapsed=     17.10 sec

 Numerical gradient for UCCSD(T)

 Total Energy          -131.96393079  Dipole moments:    0.000000    0.000000    0.000000

 Atom          dE/dx               dE/dy               dE/dz                  d2E/dx2             d2E/dy2             d2E/dz2
   1         0.003809107        -0.021363684        -0.002685479            0.000000000         0.000000000         0.000000000
   2        -0.000286414         0.007046997        -0.006147258            0.000000000         0.000000000         0.000000000
   3        -0.008622435         0.004786004         0.003870232            0.000000000         0.000000000         0.000000000
   4         0.004444844         0.006493468         0.005086595            0.000000000         0.000000000         0.000000000
   5         0.009243317         0.002000780        -0.003803503            0.000000000         0.000000000         0.000000000
   6        -0.008588419         0.001036435         0.003679413            0.000000000         0.000000000         0.000000000
 Reading points  1 to  1 from record 700.2,  wavefunction type=UCCSD(T)        

 Making model hessian for cartesian coordinates
 No hessian update for point  1

 Entering Rational Function Geometry Optimization

 Optimization point  1

 Variable                      Last           Current        Next           Gradient       Hessian
 E(UCCSD(T)) / Hartree       0.00000000  -131.96393079  -131.96518902
 GX1 / ANGSTROM              0.00000000     0.02641000     0.03114104     0.00719817    -0.00000000
 GY1 / ANGSTROM              0.00000000     0.02394000     0.06755453    -0.04037151    -0.00000000
 GZ1 / ANGSTROM              0.00000000     0.04560000     0.04575878    -0.00507482    -0.00000000
 GX2 / ANGSTROM              0.00000000    -0.02565000    -0.01816883    -0.00054124    -0.00000000
 GY2 / ANGSTROM              0.00000000    -0.46548000    -0.44983708     0.01331689    -0.00000000
 GZ2 / ANGSTROM              0.00000000     0.92865000     0.92242161    -0.01161663     0.00000000
 GX3 / ANGSTROM              0.00000000     0.94651000     0.95405513    -0.01629404     0.00545903
 GY3 / ANGSTROM              0.00000000    -0.11268000    -0.10529656     0.00904424     0.01994031
 GZ3 / ANGSTROM              0.00000000    -0.34847000    -0.35130628     0.00731368     0.02592311
 GX4 / ANGSTROM              0.00000000    -0.65764000    -0.64740425     0.00839954     0.04423123
 GY4 / ANGSTROM              0.00000000    -0.38968000    -0.37449146     0.01227088     0.04633974
 GZ4 / ANGSTROM              0.00000000    -0.57326000    -0.57297404     0.00961227     0.62026914
 GX5 / ANGSTROM              0.00000000    -0.38671000    -0.42025703     0.01746734     0.62199905
 GY5 / ANGSTROM              0.00000000    -2.53394000    -2.65889898     0.00378093     0.64452290
 GZ5 / ANGSTROM              0.00000000     0.09459000     0.10261005    -0.00718758     3.18260887
 GX6 / ANGSTROM              0.00000000     0.48973000     0.49328394    -0.01622976     4.87734436
 GY6 / ANGSTROM              0.00000000    -2.70207000    -2.65894045     0.00195858     5.30520929
 GZ6 / ANGSTROM              0.00000000    -0.28398000    -0.28338013     0.00695308     5.37936477
 Convergence:                0.00000000  (line search)     0.27642210     0.03095104  (total)

 Geometry written to block  2 of record 700


 Recomputing integrals since geometry changed

1PROGRAM * SEWARD (Integral evaluation for generally contracted gaussian basis sets)     Author: Roland Lindh, 1990

 Geometry written to block  2 of record 700


 Point group  C1  



 ATOMIC COORDINATES

 NR  ATOM    CHARGE       X              Y              Z

   1  N       7.00    0.058848032    0.127659564    0.086471565
   2  H       1.00   -0.034334112   -0.850068883    1.743124215
   3  H       1.00    1.802902911   -0.198981658   -0.663872650
   4  H       1.00   -1.223416722   -0.707686294   -1.082764003
   5  O       8.00   -0.794170693   -5.024590862    0.193904898
   6  H       1.00    0.932171547   -5.024669241   -0.535510839

 Bond lengths in Bohr (Angstrom)

 1-2  1.925911169  1-3  1.926509369  1-4  1.925906907  5-6  1.874114420
     ( 1.019148301)     ( 1.019464855)     ( 1.019146046)     ( 0.991738642)

 Bond angles

  2-1-3  107.02301999   2-1-4  105.65348127   3-1-4  107.02216203

 NUCLEAR CHARGE:                   19
 NUMBER OF PRIMITIVE AOS:          82
 NUMBER OF SYMMETRY AOS:           80
 NUMBER OF CONTRACTIONS:           48   (  48A   )
 NUMBER OF CORE ORBITALS:           2   (   2A   )
 NUMBER OF VALENCE ORBITALS:       12   (  12A   )


 NUCLEAR REPULSION ENERGY   33.79219063

 Eigenvalues of metric

         1 0.158E-01 0.254E-01 0.413E-01 0.416E-01 0.434E-01 0.530E-01 0.734E-01 0.758E-01


 Contracted 2-electron integrals neglected if value below      1.0D-14
 AO integral compression algorithm  1   Integral accuracy      1.0D-14

     5.767 MB (compressed) written to integral file ( 88.7%)


 NUMBER OF SORTED TWO-ELECTRON INTEGRALS:     692076.     BUFFER LENGTH:  32768
 NUMBER OF SEGMENTS:   1  SEGMENT LENGTH:     692076      RECORD LENGTH: 524288

 Memory used in sort:       1.25 MW

 SORT1 READ      848924. AND WROTE      682148. INTEGRALS IN      2 RECORDS. CPU TIME:     0.01 SEC, REAL TIME:     0.02 SEC
 SORT2 READ      682148. AND WROTE      692076. INTEGRALS IN     22 RECORDS. CPU TIME:     0.03 SEC, REAL TIME:     0.04 SEC

 FILE SIZES:   FILE 1:    25.0 MBYTE,  FILE 4:     8.4 MBYTE,   TOTAL:     33.4 MBYTE

 OPERATOR DM      FOR CENTER  0  COORDINATES:    0.000000    0.000000    0.000000
1PROGRAM * RHF-SCF (OPEN SHELL)       Authors: W. Meyer, H.-J. Werner


 NUMBER OF ELECTRONS:      10+    9-    SPACE SYMMETRY=1    SPIN SYMMETRY: Doublet 
 CONVERGENCE THRESHOLDS:    1.00E-10 (Density)    1.00E-11 (Energy)
 MAX. NUMBER OF ITERATIONS:      300
 INTERPOLATION TYPE:            DIIS
 INTERPOLATION STEPS:              2 (START)      1 (STEP)
 LEVEL SHIFTS:                 -0.60 (CLOSED) -0.30 (OPEN) 

 Number of closed-shell orbitals:    9 (   9 )
 Number of open-shell orbitals:      1 (   1 )


 Molecular orbitals read from record     2100.2  Type=RHF/CANONICAL (state 1.1)

 Molecular orbital dump at record        2100.2

 ITERATION    DDIFF          GRAD             ENERGY        2-EL.EN.            DIPOLE MOMENTS         DIIS   ORB.
    1      0.000D+00      0.000D+00      -131.57746785    163.894300    0.73650   -0.66328   -0.34435    0    start
    2      0.000D+00      0.252D-02      -131.58121693    163.758162    0.73717   -0.65355   -0.34415    1    diag,B
    3      0.395D-02      0.996D-03      -131.58257840    163.750244    0.73561   -0.64977   -0.34330    2    diag,B
    4      0.240D-02      0.393D-03      -131.58308695    163.742352    0.73325   -0.64905   -0.34227    3    diag,B
    5      0.776D-03      0.268D-03      -131.58347885    163.744508    0.73219   -0.64630   -0.34169    4    diag,B
    6      0.781D-03      0.156D-03      -131.58363664    163.741173    0.73311   -0.64075   -0.34181    5    diag,B
    7      0.527D-03      0.788D-04      -131.58367725    163.739881    0.73478   -0.63527   -0.34224    6    diag,B
    8      0.316D-03      0.246D-04      -131.58368019    163.739048    0.73535   -0.63374   -0.34241    7    orth
    9      0.102D-03      0.602D-05      -131.58368028    163.738883    0.73542   -0.63371   -0.34244    8    diag,B
   10      0.204D-04      0.218D-05      -131.58368029    163.738805    0.73542   -0.63381   -0.34244    9    diag,B
   11      0.658D-05      0.907D-06      -131.58368029    163.738790    0.73542   -0.63386   -0.34245    9    diag,B
   12      0.300D-05      0.358D-06      -131.58368029    163.738789    0.73543   -0.63387   -0.34245    9    diag,B
   13      0.116D-05      0.121D-06      -131.58368029    163.738791    0.73543   -0.63388   -0.34245    9    diag,B
   14      0.357D-06      0.470D-07      -131.58368029    163.738792    0.73543   -0.63388   -0.34245    9    diag,B
   15      0.107D-06      0.332D-07      -131.58368029    163.738793    0.73543   -0.63388   -0.34245    9    diag,B
   16      0.668D-07      0.310D-07      -131.58368029    163.738793    0.73543   -0.63388   -0.34245    9    diag,B
   17      0.569D-07      0.305D-07      -131.58368029    163.738793    0.73543   -0.63388   -0.34245    9    diag,B
   18      0.143D-06      0.299D-07      -131.58368029    163.738793    0.73543   -0.63388   -0.34245    9    orth
   19      0.609D-06      0.274D-07      -131.58368029    163.738792    0.73543   -0.63388   -0.34245    9    diag,B
   20      0.221D-05      0.188D-07      -131.58368029    163.738793    0.73544   -0.63388   -0.34244    9    diag,B
   21      0.245D-05      0.898D-08      -131.58368029    163.738793    0.73544   -0.63388   -0.34244    9    diag,B
   22      0.828D-06      0.503D-08      -131.58368029    163.738793    0.73544   -0.63388   -0.34244    9    diag,B
   23      0.212D-06      0.313D-08      -131.58368029    163.738793    0.73544   -0.63388   -0.34244    9    diag,B
[...]

                                  1           2           3           4           5
 Wavenumbers [cm-1]            0.00        0.00        0.00        0.00        0.00
 Intensities [km/mol]          0.00        0.00        0.00        0.00        0.00
 Intensities [relative]        0.00        0.00        0.00        0.00        0.00
           GX1              0.24333     0.00577    -0.00269     0.00605    -0.02694
           GY1              0.00269    -0.07195    -0.01825    -0.03840     0.15054
           GZ1             -0.00485     0.17451    -0.04393    -0.01285     0.06050
           GX2              0.23690     0.27764     0.02885     0.01447     0.14777
           GY2              0.00199    -0.16799    -0.05048     0.02540     0.11709
           GZ2             -0.00563     0.12906    -0.06243     0.02761     0.04902
           GX3              0.20554    -0.12043     0.01497     0.02307    -0.08972
           GY3             -0.07312    -0.03115     0.05648    -0.02860     0.19804
           GZ3             -0.04818    -0.14039    -0.04647     0.02076    -0.11190
           GX4              0.17505    -0.19002     0.03234     0.03740    -0.12001
           GY4              0.06309    -0.00136    -0.04259    -0.11433     0.14891
           GZ4              0.02341     0.33411    -0.06352     0.01109     0.16331
           GX5              0.00795     0.00847     0.18397     0.12691     0.08051
           GY5              0.03825    -0.07489    -0.04778    -0.05370     0.13394
           GZ5             -0.00065    -0.00207    -0.13983     0.19151     0.03366
           GX6             -0.01834    -0.11235     0.19303     0.13812     0.01596
           GY6             -0.03574    -0.03574     0.02494    -0.04369     0.18008
           GZ6             -0.04227    -0.29585    -0.13823     0.21509    -0.13011

                                  6
 Wavenumbers [cm-1]            0.00
 Intensities [km/mol]          0.00
 Intensities [relative]        0.00
           GX1              0.01272
           GY1              0.01416
           GZ1              0.15770
           GX2             -0.31917
           GY2              0.00443
           GZ2              0.13356
           GX3              0.16880
           GY3              0.02628
           GZ3              0.51091
           GX4              0.25536
           GY4              0.01502
           GZ4             -0.10776
           GX5              0.02111
           GY5              0.01013
           GZ5             -0.03557
           GX6              0.17005
           GY6              0.02189
           GZ6              0.31038


 Zero point energy:  0.04498033 [H]     9872.04 [1/CM]      118.10 [KJ/MOL]

 Recomputing wavefunction at initial geometry


 Recomputing integrals since geometry changed

1PROGRAM * SEWARD (Integral evaluation for generally contracted gaussian basis sets)     Author: Roland Lindh, 1990

 Geometry written to block  1 of record 700


 Point group  C1  



 ATOMIC COORDINATES

 NR  ATOM    CHARGE       X              Y              Z

   1  N       7.00    0.044371749    0.238858009    0.097757062
   2  H       1.00   -0.044839855   -0.790600762    1.739498861
   3  H       1.00    1.779502104   -0.196607199   -0.654047688
   4  H       1.00   -1.225877671   -0.652595253   -1.066217893
   5  O       8.00   -0.752083017   -5.041128912    0.173307917
   6  H       1.00    0.940927652   -5.236263257   -0.548945074

 Bond lengths in Bohr (Angstrom)

 1-2  1.939860873  1-3  1.940494184  1-4  1.939860872  5-6  1.850948924
     ( 1.026530166)     ( 1.026865300)     ( 1.026530166)     ( 0.979479989)

 Bond angles

  2-1-3  104.47275506   2-1-4  103.52258077   3-1-4  104.47275477

 NUCLEAR CHARGE:                   19
 NUMBER OF PRIMITIVE AOS:          82
 NUMBER OF SYMMETRY AOS:           80
 NUMBER OF CONTRACTIONS:           48   (  48A   )
 NUMBER OF CORE ORBITALS:           2   (   2A   )
 NUMBER OF VALENCE ORBITALS:       12   (  12A   )


 NUCLEAR REPULSION ENERGY   33.39122943

 Eigenvalues of metric

         1 0.153E-01 0.253E-01 0.423E-01 0.426E-01 0.448E-01 0.518E-01 0.746E-01 0.768E-01


 Contracted 2-electron integrals neglected if value below      1.0D-14
 AO integral compression algorithm  1   Integral accuracy      1.0D-14

     5.767 MB (compressed) written to integral file ( 86.7%)


 NUMBER OF SORTED TWO-ELECTRON INTEGRALS:     692076.     BUFFER LENGTH:  32768
 NUMBER OF SEGMENTS:   1  SEGMENT LENGTH:     692076      RECORD LENGTH: 524288

 Memory used in sort:       1.25 MW

 SORT1 READ      848924. AND WROTE      682147. INTEGRALS IN      2 RECORDS. CPU TIME:     0.01 SEC, REAL TIME:     0.02 SEC
 SORT2 READ      682147. AND WROTE      692076. INTEGRALS IN     22 RECORDS. CPU TIME:     0.03 SEC, REAL TIME:     0.04 SEC

 FILE SIZES:   FILE 1:    25.0 MBYTE,  FILE 4:     8.4 MBYTE,   TOTAL:     33.4 MBYTE

 OPERATOR DM      FOR CENTER  0  COORDINATES:    0.000000    0.000000    0.000000
1PROGRAM * RHF-SCF (OPEN SHELL)       Authors: W. Meyer, H.-J. Werner


 NUMBER OF ELECTRONS:      10+    9-    SPACE SYMMETRY=1    SPIN SYMMETRY: Doublet 
 CONVERGENCE THRESHOLDS:    1.00E-10 (Density)    1.00E-11 (Energy)
 MAX. NUMBER OF ITERATIONS:      300
 INTERPOLATION TYPE:            DIIS
 INTERPOLATION STEPS:              2 (START)      1 (STEP)
 LEVEL SHIFTS:                 -0.60 (CLOSED) -0.30 (OPEN) 

 Number of closed-shell orbitals:    9 (   9 )
 Number of open-shell orbitals:      1 (   1 )


 Molecular orbitals read from record     2100.2  Type=RHF/CANONICAL (state 1.1)

 Molecular orbital dump at record        2100.2

 ITERATION    DDIFF          GRAD             ENERGY        2-EL.EN.            DIPOLE MOMENTS         DIIS   ORB.
    1      0.000D+00      0.000D+00      -131.58433210    162.919012    0.72344   -0.76984   -0.34239    0    start
    2      0.000D+00      0.657D-11      -131.58433210    162.919012    0.72344   -0.76984   -0.34239    0    orth

 Final alpha occupancy:  10
 Final beta  occupancy:   9

 !RHF STATE 1.1 Energy               -131.584332104286
 Nuclear energy                        33.39122943
 One-electron energy                 -246.43506762
 Two-electron energy                   81.45950609
 Virial quotient                       -1.00130427
 !RHF STATE 1.1 Dipole moment           0.72344346    -0.76983685    -0.34239206
 Dipole moment /Debye                   1.83868943    -1.95660195    -0.87021681

 Orbital energies:

         1.1          2.1          3.1          4.1          5.1          6.1          7.1          8.1          9.1         10.1
    -20.621334   -15.543932    -1.305985    -1.130700    -0.657394    -0.609126    -0.607689    -0.533927    -0.429561    -0.636758

        11.1         12.1
      0.158621     0.230382

 HOMO     10.1    -0.636758 =     -17.3271eV
 LUMO     11.1     0.158621 =       4.3163eV
 LUMO-HOMO         0.795379 =      21.6434eV


 **********************************************************************************************************************************
 DATASETS  * FILE   NREC   LENGTH (MB)   RECORD NAMES
              1      19       23.93       500      610      700      900      950      970     1001      129      960     1100   
                                          VAR    BASINP    GEOM    SYMINP    ZMAT    AOBASIS   BASIS     P2S    ABASIS      S 
                                         1400     1410     1200     1210     1080     1600     1650     1300     1700   
                                           T        V       H0       H01     AOSYM     SMH    MOLCAS    ERIS     OPER   

              2      10        0.69       700     1000      520     2200     1001     2100     5600     5300     5400     5450   
                                         GEOM     BASIS   MCVARS     UHF     BASIS     RHF     GINFO    HESS     FREQ     NMOD   

 PROGRAMS   *        TOTAL       RHF      OPTG  UCCSD(T)       RHF       INT       UHF       INT
 CPU TIMES  *       597.62      0.37    417.05      6.92      0.25      0.35      0.08      0.39
 REAL TIME  *       636.33 SEC
 DISK USED  *        65.09 MB      
 **********************************************************************************************************************************


1PROGRAM * CCSD (Unrestricted open-shell coupled cluster)     Authors: C. Hampel, H.-J. Werner, 1991, M. Deegan, P.J. Knowles, 1992


 Convergence thresholds:  THRVAR = 1.00D-14  THRDEN = 1.00D-10

 CCSD(T)     terms to be evaluated (factor= 1.000)


 Number of core orbitals:           2 (   2 )
 Number of closed-shell orbitals:   7 (   7 )
 Number of active  orbitals:        1 (   1 )
 Number of external orbitals:      38 (  38 )

 Memory could be reduced to 1.84 Mwords without degradation in triples

 Number of N-1 electron functions:              15
 Number of N-2 electron functions:             105
 Number of singly external CSFs:               585
 Number of doubly external CSFs:            123669
 Total number of CSFs:                      124254

 Molecular orbitals read from record     2100.2  Type=RHF/CANONICAL (state 1.1)

 Integral transformation finished. Total CPU:   0.02 sec, npass=  1  Memory used:   0.75 MW

 Starting RMP2 calculation

 ITER.      SQ.NORM     CORR.ENERGY   TOTAL ENERGY   ENERGY CHANGE        DEN1      VAR(S)    VAR(P)  DIIS     TIME
   1      1.09356302    -0.34310908  -131.92744118    -0.34310908    -0.00105182  0.37D-05  0.33D-03  1  1     0.04
   2      1.09435183    -0.34423357  -131.92856567    -0.00112449    -0.00000146  0.90D-07  0.61D-06  2  2     0.04
   3      1.09436977    -0.34424573  -131.92857784    -0.00001217    -0.00000001  0.62D-08  0.34D-08  3  3     0.05
   4      1.09437004    -0.34424567  -131.92857778     0.00000006    -0.00000000  0.21D-09  0.19D-10  4  4     0.05
   5      1.09437006    -0.34424567  -131.92857778    -0.00000000    -0.00000000  0.79D-11  0.47D-12  5  5     0.06
   6      1.09437007    -0.34424568  -131.92857778    -0.00000000    -0.00000000  0.21D-13  0.20D-13  6  6     0.07
   7      1.09437007    -0.34424568  -131.92857778     0.00000000    -0.00000000  0.88D-15  0.36D-15  6  1     0.07
   8      1.09437007    -0.34424568  -131.92857778     0.00000000    -0.00000000  0.18D-17  0.39D-17  6  2     0.08

 Norm of t1 vector:      0.03011559      S-energy:    -0.00275756      T1 diagnostic:  0.00029563
 Norm of t2 vector:      0.30571739      P-energy:    -0.34148811
                                         Alpha-Beta:  -0.26108418
                                         Alpha-Alpha: -0.04659086
                                         Beta-Beta:   -0.03381307

 Spin contamination <S**2-Sz**2-Sz>     0.00122829
  Reference energy                   -131.584332104286
  RHF-RMP2 correlation energy          -0.344245677201
 !RHF-RMP2 energy                    -131.928577781487

 Starting UCCSD calculation

 ITER.      SQ.NORM     CORR.ENERGY   TOTAL ENERGY   ENERGY CHANGE        DEN1      VAR(S)    VAR(P)  DIIS     TIME
   1      1.10556479    -0.36274795  -131.94708006    -0.36274795    -0.00891427  0.74D-03  0.21D-02  1  1     0.26
   2      1.11501399    -0.37313697  -131.95746907    -0.01038901    -0.00051523  0.53D-04  0.15D-03  2  2     0.43
   3      1.11785638    -0.37455387  -131.95888598    -0.00141691    -0.00010653  0.89D-04  0.14D-04  3  3     0.60
   4      1.11878131    -0.37488436  -131.95921646    -0.00033049    -0.00003081  0.22D-04  0.59D-05  4  4     0.77
   5      1.11992222    -0.37508329  -131.95941540    -0.00019893    -0.00001005  0.94D-05  0.13D-05  5  5     0.95
   6      1.12070068    -0.37514444  -131.95947654    -0.00006115    -0.00000210  0.16D-05  0.37D-06  6  6     1.13
   7      1.12109641    -0.37518011  -131.95951221    -0.00003567    -0.00000043  0.20D-06  0.12D-06  6  1     1.30
   8      1.12121881    -0.37518520  -131.95951730    -0.00000509    -0.00000008  0.16D-07  0.32D-07  6  4     1.48
   9      1.12124669    -0.37518772  -131.95951982    -0.00000252    -0.00000003  0.46D-08  0.11D-07  6  1     1.66
  10      1.12126674    -0.37518802  -131.95952012    -0.00000030    -0.00000000  0.44D-09  0.14D-08  6  2     1.83
  11      1.12126467    -0.37518766  -131.95951977     0.00000036    -0.00000000  0.21D-09  0.19D-09  6  3     2.01
  12      1.12126817    -0.37518816  -131.95952026    -0.00000049    -0.00000000  0.48D-10  0.35D-10  6  5     2.18
  13      1.12126847    -0.37518826  -131.95952036    -0.00000010    -0.00000000  0.15D-10  0.82D-11  6  6     2.36
  14      1.12126893    -0.37518838  -131.95952049    -0.00000012    -0.00000000  0.77D-11  0.14D-11  6  4     2.54
  15      1.12126843    -0.37518834  -131.95952045     0.00000004    -0.00000000  0.25D-11  0.31D-12  6  1     2.72
  16      1.12126809    -0.37518830  -131.95952041     0.00000004    -0.00000000  0.79D-12  0.14D-12  6  2     2.89
  17      1.12126797    -0.37518829  -131.95952039     0.00000002    -0.00000000  0.34D-12  0.83D-13  6  3     3.07
  18      1.12126796    -0.37518828  -131.95952039     0.00000000    -0.00000000  0.68D-13  0.32D-13  6  5     3.24
  19      1.12126804    -0.37518830  -131.95952040    -0.00000001    -0.00000000  0.50D-14  0.10D-13  6  6     3.42
  20      1.12126804    -0.37518830  -131.95952040    -0.00000000    -0.00000000  0.16D-14  0.28D-14  6  1     3.59
  21      1.12126806    -0.37518830  -131.95952040    -0.00000000    -0.00000000  0.24D-15  0.52D-15  6  5     3.77
  22      1.12126805    -0.37518830  -131.95952040     0.00000000    -0.00000000  0.43D-16  0.13D-15  6  4     3.95
  23      1.12126805    -0.37518830  -131.95952040     0.00000000    -0.00000000  0.13D-16  0.33D-16  6  2     4.13
  24      1.12126805    -0.37518830  -131.95952040     0.00000000    -0.00000000  0.39D-17  0.40D-17  6  3     4.30
  25      1.12126805    -0.37518830  -131.95952040    -0.00000000    -0.00000000  0.12D-17  0.72D-18  6  5     4.48

 Norm of t1 vector:      0.07516171      S-energy:    -0.00311825      T1 diagnostic:  0.01167885
                                                                       D1 diagnostic:  0.03723668
 Norm of t2 vector:      0.34002760      P-energy:    -0.37207005
                                         Alpha-Beta:  -0.29727115
                                         Alpha-Alpha: -0.04363627
                                         Beta-Beta:   -0.03116262

 Singles amplitudes (print threshold =  0.500E-01):

         I         SYM. A    A   T(IA) [Beta-Beta]

         7         1         1     -0.05231588

 Spin contamination <S**2-Sz**2-Sz>     0.00075498

 Memory could be reduced to 1.93 Mwords without degradation in triples
 

 RESULTS
 =======

  Reference energy                   -131.584332104286
  UCCSD singles energy                 -0.003118246600
  UCCSD pair energy                    -0.372070051026
  UCCSD correlation energy             -0.375188297626
  Triples (T) contribution             -0.006241237040
  Total correlation energy             -0.381429534666
 
  RHF-UCCSD energy                   -131.959520401912
  RHF-UCCSD[T] energy                -131.966054120222
  RHF-UCCSD-T energy                 -131.965636943318
 !RHF-UCCSD(T) energy                -131.965761638952

 Program statistics:

 Available memory in ccsd:               849999308
 Min. memory needed in ccsd:                410470
 Max. memory used in ccsd:                  556078
 Max. memory used in cckext:                596483 (25 integral passes)
 Max. memory used in cckint:                752516 ( 1 integral passes)



 **********************************************************************************************************************************
 DATASETS  * FILE   NREC   LENGTH (MB)   RECORD NAMES
              1      19       23.93       500      610      700      900      950      970     1001      129      960     1100   
                                          VAR    BASINP    GEOM    SYMINP    ZMAT    AOBASIS   BASIS     P2S    ABASIS      S 
                                         1400     1410     1200     1210     1080     1600     1650     1300     1700   
                                           T        V       H0       H01     AOSYM     SMH    MOLCAS    ERIS     OPER   

              2      10        0.69       700     1000      520     2200     1001     2100     5600     5300     5400     5450   
                                         GEOM     BASIS   MCVARS     UHF     BASIS     RHF     GINFO    HESS     FREQ     NMOD   

 PROGRAMS   *        TOTAL  UCCSD(T)      OPTG  UCCSD(T)       RHF       INT       UHF       INT
 CPU TIMES  *       603.07      5.45    417.05      6.92      0.25      0.35      0.08      0.39
 REAL TIME  *       642.13 SEC
 DISK USED  *        65.09 MB      
 **********************************************************************************************************************************


 **********************************************************************************************************************************
 DATASETS  * FILE   NREC   LENGTH (MB)   RECORD NAMES
              1      19       23.93       500      610      700      900      950      970     1001      129      960     1100   
                                          VAR    BASINP    GEOM    SYMINP    ZMAT    AOBASIS   BASIS     P2S    ABASIS      S 
                                         1400     1410     1200     1210     1080     1600     1650     1300     1700   
                                           T        V       H0       H01     AOSYM     SMH    MOLCAS    ERIS     OPER   

              2      10        0.69       700     1000      520     2200     1001     2100     5600     5300     5400     5450   
                                         GEOM     BASIS   MCVARS     UHF     BASIS     RHF     GINFO    HESS     FREQ     NMOD   

 PROGRAMS   *        TOTAL      FREQ      OPTG  UCCSD(T)       RHF       INT       UHF       INT
 CPU TIMES  *       603.07    177.90    417.05      6.92      0.25      0.35      0.08      0.39
 REAL TIME  *       642.13 SEC
 DISK USED  *        65.09 MB      
 **********************************************************************************************************************************

 Dump information in style MOLDEN to freq.molden                                                                     

 Molecular orbitals read from record     2100.2  Type=RHF/CANONICAL (state 1.1)
 Occupation numbers read from record     2100.2  Type=RHF/RHF (state 1.1)
 Orbital energies read from record       2100.2  Type=RHF/CANONICAL (state 1.1)
 Redundancy group numbers read from rec  2100.2  Type=RHF/RHF (state 1.1)
 
 DUMP ORBITAL  1.1 AS ORBITAL    1  occ=    2.0000  eig=  -20.6213  GROUP=   2
 DUMP ORBITAL  2.1 AS ORBITAL    2  occ=    2.0000  eig=  -15.5439  GROUP=   2
 DUMP ORBITAL  3.1 AS ORBITAL    3  occ=    2.0000  eig=   -1.3060  GROUP=   2
 DUMP ORBITAL  4.1 AS ORBITAL    4  occ=    2.0000  eig=   -1.1307  GROUP=   2
 DUMP ORBITAL  5.1 AS ORBITAL    5  occ=    2.0000  eig=   -0.6574  GROUP=   2
 DUMP ORBITAL  6.1 AS ORBITAL    6  occ=    2.0000  eig=   -0.6091  GROUP=   2
 DUMP ORBITAL  7.1 AS ORBITAL    7  occ=    2.0000  eig=   -0.6077  GROUP=   2
 DUMP ORBITAL  8.1 AS ORBITAL    8  occ=    2.0000  eig=   -0.5339  GROUP=   2
 DUMP ORBITAL  9.1 AS ORBITAL    9  occ=    2.0000  eig=   -0.4296  GROUP=   2
 DUMP ORBITAL 10.1 AS ORBITAL   10  occ=    1.0000  eig=   -0.6368  GROUP=   1

 Total charge:      19.000000
 Frequency information read from record  5400.2

 **********************************************************************************************************************************

 UCCSD(T)/cc-pVDZ energy=   -131.965761638952

  OPTG(UCCSD(T))        UCCSD(T)        RHF-SCF         UHF-SCF 
   -131.96576164   -131.96393079   -131.58240647   -131.38201272
 **********************************************************************************************************************************
 Variable memory released
