
    -----------------------------------------------------------------------
          Psi4: An Open-Source Ab Initio Electronic Structure Package
                               Psi4 1.2.1 release

                         Git: Rev {HEAD} 406f4de 


    R. M. Parrish, L. A. Burns, D. G. A. Smith, A. C. Simmonett,
    A. E. DePrince III, E. G. Hohenstein, U. Bozkaya, A. Yu. Sokolov,
    R. Di Remigio, R. M. Richard, J. F. Gonthier, A. M. James,
    H. R. McAlexander, A. Kumar, M. Saitow, X. Wang, B. P. Pritchard,
    P. Verma, H. F. Schaefer III, K. Patkowski, R. A. King, E. F. Valeev,
    F. A. Evangelista, J. M. Turney, T. D. Crawford, and C. D. Sherrill,
    J. Chem. Theory Comput. 13(7) pp 3185--3197 (2017).
    (doi: 10.1021/acs.jctc.7b00174)


                         Additional Contributions by
    P. Kraus, H. Kruse, M. H. Lechner, M. C. Schieber, and R. A. Shaw

    -----------------------------------------------------------------------


    Psi4 started on: Monday, 28 January 2019 07:27PM

    Process ID: 57221
    Host:       blogin3
    PSIDATADIR: /home/kmoore/miniconda/envs/esenv/share/psi4
    Memory:     500.0 MiB
    Threads:    1
    
  ==> Input File <==

--------------------------------------------------------------------------
# Psi4 1.0 Computation 

molecule {
 0 1
 H
 O 1 r1
 C 2 r2 1 a1
 H 3 r3 2 a2 1 d1
 H 3 r4 4 a3 2 d2
 H 3 r4 4 a3 2 d3
 r1 =   0.992
 r2 =   1.398
 r3 =   1.109
 r4 =   1.112
 a1 =   106.0
 a2 =   108.9
 a3 =   108.2
 d2 =   119.9
 d3 =  -119.9
 d1 =  -180.0
 units angstrom
}

set reference rks
set scf_type pk
set basis cc-pVDZ 
set opt_type min

set optking {
  frozen_dihedral = ("
    6 3 4 2
  ")
}

opt('b3lyp')
G, wfn1 = gradient('b3lyp', return_wfn=True)
E, wfn2 = frequencies('b3lyp', dertype=1, return_wfn=True)
wfn1.gradient().print_out()
wfn2.hessian().print_out()


--------------------------------------------------------------------------
gradient() will perform analytic gradient computation.

*** tstart() called on blogin3
*** at Mon Jan 28 19:27:15 2019

   => Loading Basis Set <=

    Name: CC-PVDZ
    Role: ORBITAL
    Keyword: BASIS
    atoms 1, 4-6 entry H          line    22 file /home/kmoore/miniconda/envs/esenv/share/psi4/basis/cc-pvdz.gbs 
    atoms 2      entry O          line   198 file /home/kmoore/miniconda/envs/esenv/share/psi4/basis/cc-pvdz.gbs 
    atoms 3      entry C          line   138 file /home/kmoore/miniconda/envs/esenv/share/psi4/basis/cc-pvdz.gbs 


         ---------------------------------------------------------
                                   SCF
            by Justin Turney, Rob Parrish, Andy Simmonett
                             and Daniel Smith
                              RKS Reference
                        1 Threads,    500 MiB Core
         ---------------------------------------------------------

  ==> Geometry <==

    Molecular point group: cs
    Full point group: Cs

    Geometry (in Angstrom), charge = 0, multiplicity = 1:

       Center              X                  Y                   Z               Mass       
    ------------   -----------------  -----------------  -----------------  -----------------
         H           -0.664155555980     1.152892367064     0.000000000000     1.007825032070
         O           -0.664155555980     0.160892367064     0.000000000000    15.994914619560
         C            0.679688294942    -0.224448656368     0.000000000000    12.000000000000
         H            0.735795865487    -1.332028423486     0.000000000000     1.007825032070
         H            1.188029121763     0.149064567033     0.915762783548     1.007825032070
         H            1.188029121763     0.149064567033    -0.915762783548     1.007825032070

  Running in cs symmetry.

  Rotational constants: A =      4.07646  B =      0.84837  C =      0.81733 [cm^-1]
  Rotational constants: A = 122209.07104  B =  25433.38399  C =  24502.83981 [MHz]
  Nuclear repulsion =   40.349891215838312

  Charge       = 0
  Multiplicity = 1
  Electrons    = 18
  Nalpha       = 9
  Nbeta        = 9

  ==> Algorithm <==

  SCF Algorithm Type is PK.
  DIIS enabled.
  MOM disabled.
  Fractional occupation disabled.
  Guess Type is SAD.
  Energy threshold   = 1.00e-08
  Density threshold  = 1.00e-08
  Integral threshold = 0.00e+00

  ==> Primary Basis <==

  Basis Set: CC-PVDZ
    Blend: CC-PVDZ
    Number of shells: 24
    Number of basis function: 48
    Number of Cartesian functions: 50
    Spherical Harmonics?: true
    Max angular momentum: 2

  ==> DFT Potential <==

   => Composite Functional: B3LYP <= 

    B3LYP Hyb-GGA Exchange-Correlation Functional

    P. J. Stephens, F. J. Devlin, C. F. Chabalowski, and M. J. Frisch, J. Phys. Chem. 98, 11623 (1994)

    Deriv               =              1
    GGA                 =           TRUE
    Meta                =          FALSE

    Exchange Hybrid     =           TRUE
    MP2 Hybrid          =          FALSE

   => Exchange Functionals <=

    0.0800   Slater exchange
    0.7200         Becke 88

   => Exact (HF) Exchange <=

    0.2000               HF 

   => Correlation Functionals <=

    0.1900   Vosko, Wilk & Nusair (VWN5_RPA)
    0.8100   Lee, Yang & Parr

   => Molecular Quadrature <=

    Radial Scheme       =       TREUTLER
    Pruning Scheme      =           FLAT
    Nuclear Scheme      =       TREUTLER

    BS radius alpha     =              1
    Pruning alpha       =              1
    Radial Points       =             75
    Spherical Points    =            302
    Total Points        =         133371
    Total Blocks        =           1069
    Max Points          =            255
    Max Functions       =             48

  ==> Pre-Iterations <==

   -------------------------------------------------------
    Irrep   Nso     Nmo     Nalpha   Nbeta   Ndocc  Nsocc
   -------------------------------------------------------
     A'        33      33       0       0       0       0
     A"        15      15       0       0       0       0
   -------------------------------------------------------
    Total      48      48       9       9       9       0
   -------------------------------------------------------

  ==> Integral Setup <==

  Using in-core PK algorithm.
   Calculation information:
      Number of atoms:                   6
      Number of AO shells:              24
      Number of primitives:             64
      Number of atomic orbitals:        50
      Number of basis functions:        48

      Integral cutoff                 1.00e-12
      Number of threads:                 1

  Performing in-core PK
  Using 1384152 doubles for integral storage.
  We computed 45150 shell quartets total.
  Whereas there are 45150 unique shell quartets.

  ==> DiskJK: Disk-Based J/K Matrices <==

    J tasked:                  Yes
    K tasked:                  Yes
    wK tasked:                  No
    Memory (MB):               375
    Schwarz Cutoff:          1E-12

    OpenMP threads:              1

  Minimum eigenvalue in the overlap matrix is 1.6456160653E-02.
  Using Symmetric Orthogonalization.

  SCF Guess: Superposition of Atomic Densities via on-the-fly atomic UHF.

  ==> Iterations <==

                        Total Energy        Delta E     RMS |[F,P]|

   @RKS iter   0:  -115.83661342302454   -1.15837e+02   6.12502e-02 
   @RKS iter   1:  -115.61807861199884    2.18535e-01   1.36947e-02 
   @RKS iter   2:  -115.51992384638926    9.81548e-02   1.97620e-02 DIIS
   @RKS iter   3:  -115.72006548682350   -2.00142e-01   1.29992e-03 DIIS
   @RKS iter   4:  -115.72075514046938   -6.89654e-04   7.39623e-04 DIIS
   @RKS iter   5:  -115.72108955775967   -3.34417e-04   6.84636e-05 DIIS
   @RKS iter   6:  -115.72109214678535   -2.58903e-06   5.01963e-06 DIIS
   @RKS iter   7:  -115.72109216452763   -1.77423e-08   6.91921e-07 DIIS
   @RKS iter   8:  -115.72109216482716   -2.99522e-10   1.01725e-07 DIIS
   @RKS iter   9:  -115.72109216483402   -6.86384e-12   1.13871e-08 DIIS
   @RKS iter  10:  -115.72109216483413   -1.13687e-13   1.16630e-09 DIIS

  ==> Post-Iterations <==

    Orbital Energies [Eh]
    ---------------------

    Doubly Occupied:                                                      

       1Ap   -19.130067     2Ap   -10.226838     3Ap    -1.012702  
       4Ap    -0.669289     5Ap    -0.497107     1App   -0.436927  
       6Ap    -0.419895     7Ap    -0.324690     2App   -0.261243  

    Virtual:                                                              

       8Ap     0.049522     9Ap     0.092724     3App    0.134898  
      10Ap     0.136063    11Ap     0.198429    12Ap     0.447033  
       4App    0.464509    13Ap     0.492829    14Ap     0.559325  
       5App    0.624687    15Ap     0.641569    16Ap     0.645741  
      17Ap     0.871973     6App    0.894658    18Ap     0.949857  
      19Ap     1.003352     7App    1.065717    20Ap     1.193599  
       8App    1.338220    21Ap     1.399287     9App    1.399293  
      10App    1.577178    22Ap     1.612318    23Ap     1.643474  
      11App    1.667352    24Ap     1.750932    25Ap     1.866372  
      26Ap     1.966940    27Ap     2.055465    12App    2.069418  
      28Ap     2.134360    13App    2.375151    29Ap     2.389971  
      30Ap     2.403809    14App    2.925759    15App    3.014099  
      31Ap     3.074751    32Ap     3.189609    33Ap     3.642410  

    Final Occupation by Irrep:
             Ap   App 
    DOCC [     7,    2 ]

  Energy converged.

  @RKS Final Energy:  -115.72109216483413

   => Energetics <=

    Nuclear Repulsion Energy =             40.3498912158383121
    One-Electron Energy =                -237.1701221693635944
    Two-Electron Energy =                  93.6478930456747776
    DFT Exchange-Correlation Energy =     -12.5487542569836297
    Empirical Dispersion Energy =           0.0000000000000000
    VV10 Nonlocal Energy =                  0.0000000000000000
    Total Energy =                       -115.7210921648341326



Properties will be evaluated at   0.000000,   0.000000,   0.000000 [a0]

Properties computed using the SCF density matrix

  Nuclear Dipole Moment: [e a0]
     X:     2.2915      Y:     0.1123      Z:     0.0000

  Electronic Dipole Moment: [e a0]
     X:    -1.8587      Y:     0.3149      Z:     0.0000

  Dipole Moment: [e a0]
     X:     0.4327      Y:     0.4272      Z:     0.0000     Total:     0.6081

  Dipole Moment: [D]
     X:     1.0998      Y:     1.0858      Z:     0.0000     Total:     1.5455


*** tstop() called on blogin3 at Mon Jan 28 19:27:21 2019
Module time:
	user time   =       5.37 seconds =       0.09 minutes
	system time =       0.08 seconds =       0.00 minutes
	total time  =          6 seconds =       0.10 minutes
Total time:
	user time   =       5.37 seconds =       0.09 minutes
	system time =       0.08 seconds =       0.00 minutes
	total time  =          6 seconds =       0.10 minutes

*** tstart() called on blogin3
*** at Mon Jan 28 19:27:21 2019


         ------------------------------------------------------------
                                   SCF GRAD                          
                          Rob Parrish, Justin Turney,                
                       Andy Simmonett, and Alex Sokolov              
         ------------------------------------------------------------

  ==> Geometry <==

    Molecular point group: cs
    Full point group: Cs

    Geometry (in Angstrom), charge = 0, multiplicity = 1:

       Center              X                  Y                   Z               Mass       
    ------------   -----------------  -----------------  -----------------  -----------------
         H           -0.664155555980     1.152892367064     0.000000000000     1.007825032070
         O           -0.664155555980     0.160892367064     0.000000000000    15.994914619560
         C            0.679688294942    -0.224448656368     0.000000000000    12.000000000000
         H            0.735795865487    -1.332028423486     0.000000000000     1.007825032070
         H            1.188029121763     0.149064567033     0.915762783548     1.007825032070
         H            1.188029121763     0.149064567033    -0.915762783548     1.007825032070

  Nuclear repulsion =   40.349891215838312

  ==> Basis Set <==

  Basis Set: CC-PVDZ
    Blend: CC-PVDZ
    Number of shells: 24
    Number of basis function: 48
    Number of Cartesian functions: 50
    Spherical Harmonics?: true
    Max angular momentum: 2

  ==> DirectJKGrad: Integral-Direct SCF Gradients <==

    Gradient:                    1
    J tasked:                  Yes
    K tasked:                  Yes
    wK tasked:                  No
    Integrals threads:           1
    Schwarz Cutoff:          0E+00

  ==> DFT Potential <==

   => Composite Functional: B3LYP <= 

    B3LYP Hyb-GGA Exchange-Correlation Functional

    P. J. Stephens, F. J. Devlin, C. F. Chabalowski, and M. J. Frisch, J. Phys. Chem. 98, 11623 (1994)

    Deriv               =              1
    GGA                 =           TRUE
    Meta                =          FALSE

    Exchange Hybrid     =           TRUE
    MP2 Hybrid          =          FALSE

   => Exchange Functionals <=

    0.0800   Slater exchange
    0.7200         Becke 88

   => Exact (HF) Exchange <=

    0.2000               HF 

   => Correlation Functionals <=

    0.1900   Vosko, Wilk & Nusair (VWN5_RPA)
    0.8100   Lee, Yang & Parr

   => Molecular Quadrature <=

    Radial Scheme       =       TREUTLER
    Pruning Scheme      =           FLAT
    Nuclear Scheme      =       TREUTLER

    BS radius alpha     =              1
    Pruning alpha       =              1
    Radial Points       =             75
    Spherical Points    =            302
    Total Points        =         133371
    Total Blocks        =           1069
    Max Points          =            255
    Max Functions       =             48


  -Total Gradient:
     Atom            X                  Y                   Z
    ------   -----------------  -----------------  -----------------
       1        0.002579285401     0.022151600604     0.000000000000
       2        0.015841556038    -0.022963153290     0.000000000000
       3       -0.008425093956     0.000518302575     0.000000000000
       4        0.001702570741    -0.004764618183     0.000000000000
       5       -0.005847924408     0.002530482363     0.004384111800
       6       -0.005847924408     0.002530482363    -0.004384111800


*** tstop() called on blogin3 at Mon Jan 28 19:27:23 2019
Module time:
	user time   =       1.89 seconds =       0.03 minutes
	system time =       0.00 seconds =       0.00 minutes
	total time  =          2 seconds =       0.03 minutes
Total time:
	user time   =       7.27 seconds =       0.12 minutes
	system time =       0.08 seconds =       0.00 minutes
	total time  =          8 seconds =       0.13 minutes

			-----------------------------------------
			 OPTKING 2.0: for geometry optimizations 
			  - R.A. King,  Bethel University        
			-----------------------------------------

	Internal coordinates to be generated automatically.
	Detected frag 1 with atoms:  1 2 3 4 5 6
	---Fragment 1 Bond Connectivity---
	 1 : 2
	 2 : 1 3
	 3 : 2 4 5 6
	 4 : 3
	 5 : 3
	 6 : 3

	Assuming in current code that numbering for constraints corresponds to unified fragment.
	Frozen dihedral atom list: 
	     6     3     4     2
	---Fragment 1 Geometry and Gradient---
	 H          -1.2550721104        2.1786508344        0.0000000000
	 O          -1.2550721104        0.3040425106        0.0000000000
	 C           1.2844247332       -0.4241464914        0.0000000000
	 H           1.3904526755       -2.5171689216        0.0000000000
	 H           2.2450496780        0.2816912078        1.7305408636
	 H           2.2450496780        0.2816912078       -1.7305408636
	             0.0025792854        0.0221516006        0.0000000000
	             0.0158415560       -0.0229631533        0.0000000000
	            -0.0084250940        0.0005183026        0.0000000000
	             0.0017025707       -0.0047646182        0.0000000000
	            -0.0058479244        0.0025304824        0.0043841118
	            -0.0058479244        0.0025304824       -0.0043841118

	Previous optimization step data not found.  Starting new optimization.

	---Fragment 1 Intrafragment Coordinates---
	 - Coordinate -           - BOHR/RAD -       - ANG/DEG -
	 R(1,2)           =         1.874608	       0.992000
	 R(2,3)           =         2.641837	       1.398000
	 R(3,4)           =         2.095706	       1.109000
	 R(3,5)           =         2.101375	       1.112000
	 R(3,6)           =         2.101375	       1.112000
	 B(1,2,3)         =         1.850049	     106.000000
	 B(2,3,4)         =         1.900664	     108.900000
	 B(2,3,5)         =         1.925004	     110.294612
	 B(2,3,6)         =         1.925004	     110.294612
	 B(4,3,5)         =         1.888446	     108.200000
	 B(4,3,6)         =         1.888446	     108.200000
	 B(5,3,6)         =         1.935204	     110.879007
	 D(1,2,3,4)       =         3.141593	     180.000000
	 D(1,2,3,5)       =         1.071740	      61.406193
	 D(1,2,3,6)       =        -1.071740	     -61.406193
	*D(2,4,3,6)       =        -2.092650	    -119.900000

	Current energy   :      -115.7210921648

	Generating empirical Hessian (Schlegel '84) for each fragment.
	Taking RFO optimization step.
	Going to follow RFO solution 1.
	Rejecting RFO root 1 because it breaks the molecular point group.
	Rejecting RFO root 2 because normalization gives large value.
	Rejecting RFO root 3 because it breaks the molecular point group.
	Rejecting RFO root 4 because it breaks the molecular point group.
	Rejecting RFO root 5 because it breaks the molecular point group.
	Rejecting RFO root 6 because normalization gives large value.
	Rejecting RFO root 7 because it breaks the molecular point group.
	Rejecting RFO root 8 because it breaks the molecular point group.
	Rejecting RFO root 9 because it breaks the molecular point group.
	Rejecting RFO root 10 because normalization gives large value.
	Rejecting RFO root 11 because normalization gives large value.
	Using RFO vector 12.

	Determining step-restricting scale parameter for RS-RFO.
	Maximum step size allowed    0.50000

	 Iter      |step|        alpha        rfo_root  
	------------------------------------------------
	    0    10.47886       1.00000          12
	    1     0.12487       1.97090           1
	------------------------------------------------
	Norm of target step-size    0.12487
	Projected energy change by RFO approximation:        -0.0042161430

	Back-transformation to cartesian coordinates...
	Could not converge backtransformation.
	Using first guess instead.

	Back-transformation to cartesian coordinates to adjust frozen coordinates...
	Successfully converged to displaced geometry.

	--- Internal Coordinate Step in ANG or DEG, aJ/ANG or AJ/DEG ---
	 ---------------------------------------------------------------------------
	   Coordinate                Previous        Force       Change         New 
	   ----------                --------       ------       ------       ------
	    1 R(1,2)          =      0.992000    -0.182490     0.052683     1.044683
	    2 R(2,3)          =      1.398000     0.147720     0.031633     1.429633
	    3 R(3,4)          =      1.109000    -0.039916     0.081161     1.190161
	    4 R(3,5)          =      1.112000    -0.014722     0.088760     1.200760
	    5 R(3,6)          =      1.112000    -0.014722     0.106987     1.218987
	    6 B(1,2,3)        =    106.000000     0.000368     1.713181   107.713181
	    7 B(2,3,4)        =    108.900000    -0.000536    -2.602392   106.297608
	    8 B(2,3,5)        =    110.294612     0.000896     4.236513   114.531125
	    9 B(2,3,6)        =    110.294612     0.000360     1.798613   112.093225
	   10 B(4,3,5)        =    108.200000    -0.000097    -0.403052   107.796948
	   11 B(4,3,6)        =    108.200000    -0.000214    -1.285848   106.914152
	   12 B(5,3,6)        =    110.879007    -0.000447    -2.056282   108.822725
	   13 D(1,2,3,4)      =    180.000000     0.000035     0.836579   180.836579
	   14 D(1,2,3,5)      =     61.406193     0.000015     0.518035    61.924228
	   15 D(1,2,3,6)      =    -61.406193    -0.000051    -1.281379   -62.687572
	   16 *D(2,4,3,6)     =   -119.900000     0.000000     0.000000  -119.900000
	 ---------------------------------------------------------------------------
	ERROR: Symmetry operation 1 did not map atom 1 to another atom:
	  attempted to find atom at    -1.299250 2.382390 -0.040092
	  atom_map() throwing PsiException
	Unable to symmetrize geometry.
	Increasing symmetry tolerance to     0.0750
	ERROR: Symmetry operation 1 did not map atom 1 to another atom:
	  attempted to find atom at    -1.299250 2.382390 -0.040092
	  atom_map() throwing PsiException
	Unable to symmetrize geometry.
	Increasing symmetry tolerance to     0.1125
	ERROR: Symmetry operation 1 did not map atom 4 to another atom:
	  attempted to find atom at    1.182876 -2.677198 0.121834
	  atom_map() throwing PsiException
	Unable to symmetrize geometry.
	Increasing symmetry tolerance to     0.1688
	ERROR: Symmetry operation 1 did not map atom 4 to another atom:
	  attempted to find atom at    1.182876 -2.677198 0.121834
	  atom_map() throwing PsiException
	Unable to symmetrize geometry.
	Increasing symmetry tolerance to     0.2531
	Successfully symmetrized geometry.

  ==> Convergence Check <==

  Measures of convergence in internal coordinates in au.
  Criteria marked as inactive (o), active & met (*), and active & unmet ( ).
  --------------------------------------------------------------------------------------------- ~
   Step     Total Energy     Delta E     MAX Force     RMS Force      MAX Disp      RMS Disp    ~
  --------------------------------------------------------------------------------------------- ~
    Convergence Criteria    1.00e-06 *    3.00e-04 *             o    1.20e-03 *             o  ~
  --------------------------------------------------------------------------------------------- ~
      1    -115.72109216   -1.16e+02      2.22e-02      8.42e-03 o    2.02e-01      8.59e-02 o  ~
  ---------------------------------------------------------------------------------------------

	Writing optimization data to binary file.
	Structure for next step:
	Cartesian Geometry (in Angstrom)
	    H    -0.6875333702   1.2607065269   0.0000000000
	    O    -0.6947713795   0.2171898032   0.0000000000
	    C     0.6628282507  -0.2293924572   0.0000000000
	    H     0.6259508478  -1.4167120050   0.0000000000
	    H     1.2783784716   0.1118224602   0.9821565607
	    H     1.2783784716   0.1118224602  -0.9821565607
			--------------------------
			 OPTKING Finished Execution 
			--------------------------

    Structure for next step:
    Molecular point group: cs
    Full point group: Cs

    Geometry (in Angstrom), charge = 0, multiplicity = 1:

    H       
    O             1          r1
    C             2          r2      1          a1
    H             3          r3      2          a2      1          d1
    H             3          r4      4          a3      2          d2
    H             3          r4      4          a3      2          d3

    a1        =  107.8112083826
    a2        =  106.4296160946
    a3        =  107.3419818562
    d1        = -180.0000000000
    d2        =  121.6183617840
    d3        = -121.6183617840
    r1        =    1.0435418255
    r2        =    1.4291649559
    r3        =    1.1878921042
    r4        =    1.2082885434

gradient() will perform analytic gradient computation.

*** tstart() called on blogin3
*** at Mon Jan 28 19:27:23 2019

   => Loading Basis Set <=

    Name: CC-PVDZ
    Role: ORBITAL
    Keyword: BASIS
    atoms 1, 4-6 entry H          line    22 file /home/kmoore/miniconda/envs/esenv/share/psi4/basis/cc-pvdz.gbs 
    atoms 2      entry O          line   198 file /home/kmoore/miniconda/envs/esenv/share/psi4/basis/cc-pvdz.gbs 
    atoms 3      entry C          line   138 file /home/kmoore/miniconda/envs/esenv/share/psi4/basis/cc-pvdz.gbs 


         ---------------------------------------------------------
                                   SCF
            by Justin Turney, Rob Parrish, Andy Simmonett
                             and Daniel Smith
                              RKS Reference
                        1 Threads,    500 MiB Core
         ---------------------------------------------------------

  ==> Geometry <==

    Molecular point group: cs
    Full point group: Cs

    Geometry (in Angstrom), charge = 0, multiplicity = 1:

       Center              X                  Y                   Z               Mass       
    ------------   -----------------  -----------------  -----------------  -----------------
         H           -0.675976764325     1.231399275316     0.000000000000     1.007825032070
         O           -0.675976764325     0.187857449853     0.000000000000    15.994914619560
         C            0.684687705588    -0.249297753052     0.000000000000    12.000000000000
         H            0.656046441891    -1.436844522385     0.000000000000     1.007825032070
         H            1.297856452124     0.096178414963     0.982156560686     1.007825032070
         H            1.297856452124     0.096178414963    -0.982156560686     1.007825032070

  Running in cs symmetry.

  Rotational constants: A =      3.58564  B =      0.78962  C =      0.76067 [cm^-1]
  Rotational constants: A = 107494.70192  B =  23672.31746  C =  22804.20590 [MHz]
  Nuclear repulsion =   38.610912547280201

  Charge       = 0
  Multiplicity = 1
  Electrons    = 18
  Nalpha       = 9
  Nbeta        = 9

  ==> Algorithm <==

  SCF Algorithm Type is PK.
  DIIS enabled.
  MOM disabled.
  Fractional occupation disabled.
  Guess Type is READ.
  Energy threshold   = 1.00e-08
  Density threshold  = 1.00e-08
  Integral threshold = 0.00e+00

  ==> Primary Basis <==

  Basis Set: CC-PVDZ
    Blend: CC-PVDZ
    Number of shells: 24
    Number of basis function: 48
    Number of Cartesian functions: 50
    Spherical Harmonics?: true
    Max angular momentum: 2

  ==> DFT Potential <==

   => Composite Functional: B3LYP <= 

    B3LYP Hyb-GGA Exchange-Correlation Functional

    P. J. Stephens, F. J. Devlin, C. F. Chabalowski, and M. J. Frisch, J. Phys. Chem. 98, 11623 (1994)

    Deriv               =              1
    GGA                 =           TRUE
    Meta                =          FALSE

    Exchange Hybrid     =           TRUE
    MP2 Hybrid          =          FALSE

   => Exchange Functionals <=

    0.0800   Slater exchange
    0.7200         Becke 88

   => Exact (HF) Exchange <=

    0.2000               HF 

   => Correlation Functionals <=

    0.1900   Vosko, Wilk & Nusair (VWN5_RPA)
    0.8100   Lee, Yang & Parr

   => Molecular Quadrature <=

    Radial Scheme       =       TREUTLER
    Pruning Scheme      =           FLAT
    Nuclear Scheme      =       TREUTLER

    BS radius alpha     =              1
    Pruning alpha       =              1
    Radial Points       =             75
    Spherical Points    =            302
    Total Points        =         133423
    Total Blocks        =           1070
    Max Points          =            256
    Max Functions       =             48

  Reading orbitals from file 180, no projection.

  ==> Pre-Iterations <==

   -------------------------------------------------------
    Irrep   Nso     Nmo     Nalpha   Nbeta   Ndocc  Nsocc
   -------------------------------------------------------
     A'        33      33       0       0       0       0
     A"        15      15       0       0       0       0
   -------------------------------------------------------
    Total      48      48       9       9       9       0
   -------------------------------------------------------

  ==> Integral Setup <==

  Using in-core PK algorithm.
   Calculation information:
      Number of atoms:                   6
      Number of AO shells:              24
      Number of primitives:             64
      Number of atomic orbitals:        50
      Number of basis functions:        48

      Integral cutoff                 1.00e-12
      Number of threads:                 1

  Performing in-core PK
  Using 1384152 doubles for integral storage.
  We computed 45150 shell quartets total.
  Whereas there are 45150 unique shell quartets.

  ==> DiskJK: Disk-Based J/K Matrices <==

    J tasked:                  Yes
    K tasked:                  Yes
    wK tasked:                  No
    Memory (MB):               375
    Schwarz Cutoff:          1E-12

    OpenMP threads:              1

  Minimum eigenvalue in the overlap matrix is 1.8723525188E-02.
  Using Symmetric Orthogonalization.

  SCF Guess: Orbitals guess was supplied from a previous computation.

  ==> Iterations <==

                        Total Energy        Delta E     RMS |[F,P]|

   @RKS iter   0:  -115.57926155494799   -1.15579e+02   5.77345e-03 
   @RKS iter   1:  -115.70124749220986   -1.21986e-01   2.10418e-03 
   @RKS iter   2:  -115.69953493635988    1.71256e-03   2.69762e-03 DIIS
   @RKS iter   3:  -115.70461879097822   -5.08385e-03   1.04751e-04 DIIS
   @RKS iter   4:  -115.70462242421040   -3.63323e-06   6.17438e-05 DIIS
   @RKS iter   5:  -115.70462408666714   -1.66246e-06   2.05472e-05 DIIS
   @RKS iter   6:  -115.70462430406181   -2.17395e-07   1.32908e-06 DIIS
   @RKS iter   7:  -115.70462430544615   -1.38434e-09   2.45566e-07 DIIS
   @RKS iter   8:  -115.70462430549719   -5.10454e-11   2.05694e-08 DIIS
   @RKS iter   9:  -115.70462430549787   -6.82121e-13   3.40710e-09 DIIS

  ==> Post-Iterations <==

    Orbital Energies [Eh]
    ---------------------

    Doubly Occupied:                                                      

       1Ap   -19.143670     2Ap   -10.254494     3Ap    -0.999568  
       4Ap    -0.650381     5Ap    -0.486090     1App   -0.416173  
       6Ap    -0.408767     7Ap    -0.323417     2App   -0.265175  

    Virtual:                                                              

       8Ap     0.037362     9Ap     0.070255    10Ap     0.114115  
       3App    0.117226    11Ap     0.186704    12Ap     0.438536  
       4App    0.461650    13Ap     0.480983    14Ap     0.534149  
      15Ap     0.573057     5App    0.593243    16Ap     0.604419  
      17Ap     0.867515     6App    0.891688    18Ap     0.945580  
      19Ap     0.994590     7App    1.047297    20Ap     1.203976  
       8App    1.332493     9App    1.354926    21Ap     1.355675  
      10App    1.512368    22Ap     1.542193    11App    1.584903  
      23Ap     1.603968    24Ap     1.703144    25Ap     1.781316  
      26Ap     1.882861    12App    1.968552    27Ap     1.987087  
      28Ap     2.032188    29Ap     2.235099    13App    2.257062  
      30Ap     2.289237    14App    2.863619    15App    2.959100  
      31Ap     3.002553    32Ap     3.152572    33Ap     3.573030  

    Final Occupation by Irrep:
             Ap   App 
    DOCC [     7,    2 ]

  Energy converged.

  @RKS Final Energy:  -115.70462430549787

   => Energetics <=

    Nuclear Repulsion Energy =             38.6109125472802006
    One-Electron Energy =                -233.7933049593248711
    Two-Electron Energy =                  91.9221210946921161
    DFT Exchange-Correlation Energy =     -12.4443529881453223
    Empirical Dispersion Energy =           0.0000000000000000
    VV10 Nonlocal Energy =                  0.0000000000000000
    Total Energy =                       -115.7046243054978731



Properties will be evaluated at   0.000000,   0.000000,   0.000000 [a0]

Properties computed using the SCF density matrix

  Nuclear Dipole Moment: [e a0]
     X:     2.4115      Y:    -0.0114      Z:     0.0000

  Electronic Dipole Moment: [e a0]
     X:    -2.0181      Y:     0.4416      Z:     0.0000

  Dipole Moment: [e a0]
     X:     0.3933      Y:     0.4302      Z:     0.0000     Total:     0.5829

  Dipole Moment: [D]
     X:     0.9997      Y:     1.0935      Z:     0.0000     Total:     1.4817


*** tstop() called on blogin3 at Mon Jan 28 19:27:28 2019
Module time:
	user time   =       4.46 seconds =       0.07 minutes
	system time =       0.06 seconds =       0.00 minutes
	total time  =          5 seconds =       0.08 minutes
Total time:
	user time   =      11.75 seconds =       0.20 minutes
	system time =       0.14 seconds =       0.00 minutes
	total time  =         13 seconds =       0.22 minutes

*** tstart() called on blogin3
*** at Mon Jan 28 19:27:28 2019


         ------------------------------------------------------------
                                   SCF GRAD                          
                          Rob Parrish, Justin Turney,                
                       Andy Simmonett, and Alex Sokolov              
         ------------------------------------------------------------

  ==> Geometry <==

    Molecular point group: cs
    Full point group: Cs

    Geometry (in Angstrom), charge = 0, multiplicity = 1:

       Center              X                  Y                   Z               Mass       
    ------------   -----------------  -----------------  -----------------  -----------------
         H           -0.675976764325     1.231399275316     0.000000000000     1.007825032070
         O           -0.675976764325     0.187857449853     0.000000000000    15.994914619560
         C            0.684687705588    -0.249297753052     0.000000000000    12.000000000000
         H            0.656046441891    -1.436844522385     0.000000000000     1.007825032070
         H            1.297856452124     0.096178414963     0.982156560686     1.007825032070
         H            1.297856452124     0.096178414963    -0.982156560686     1.007825032070

  Nuclear repulsion =   38.610912547280201

  ==> Basis Set <==

  Basis Set: CC-PVDZ
    Blend: CC-PVDZ
    Number of shells: 24
    Number of basis function: 48
    Number of Cartesian functions: 50
    Spherical Harmonics?: true
    Max angular momentum: 2

  ==> DirectJKGrad: Integral-Direct SCF Gradients <==

    Gradient:                    1
    J tasked:                  Yes
    K tasked:                  Yes
    wK tasked:                  No
    Integrals threads:           1
    Schwarz Cutoff:          0E+00

  ==> DFT Potential <==

   => Composite Functional: B3LYP <= 

    B3LYP Hyb-GGA Exchange-Correlation Functional

    P. J. Stephens, F. J. Devlin, C. F. Chabalowski, and M. J. Frisch, J. Phys. Chem. 98, 11623 (1994)

    Deriv               =              1
    GGA                 =           TRUE
    Meta                =          FALSE

    Exchange Hybrid     =           TRUE
    MP2 Hybrid          =          FALSE

   => Exchange Functionals <=

    0.0800   Slater exchange
    0.7200         Becke 88

   => Exact (HF) Exchange <=

    0.2000               HF 

   => Correlation Functionals <=

    0.1900   Vosko, Wilk & Nusair (VWN5_RPA)
    0.8100   Lee, Yang & Parr

   => Molecular Quadrature <=

    Radial Scheme       =       TREUTLER
    Pruning Scheme      =           FLAT
    Nuclear Scheme      =       TREUTLER

    BS radius alpha     =              1
    Pruning alpha       =              1
    Radial Points       =             75
    Spherical Points    =            302
    Total Points        =         133423
    Total Blocks        =           1070
    Max Points          =            256
    Max Functions       =             48


  -Total Gradient:
     Atom            X                  Y                   Z
    ------   -----------------  -----------------  -----------------
       1       -0.002325334585     0.056229500389     0.000000000000
       2       -0.013097015449    -0.049743551137     0.000000000000
       3       -0.027723789615     0.012226623121     0.000000000000
       4       -0.001567382562    -0.044298100338     0.000000000000
       5        0.022358942376     0.012793421160     0.038766584192
       6        0.022358942376     0.012793421160    -0.038766584192


*** tstop() called on blogin3 at Mon Jan 28 19:27:30 2019
Module time:
	user time   =       1.88 seconds =       0.03 minutes
	system time =       0.01 seconds =       0.00 minutes
	total time  =          2 seconds =       0.03 minutes
Total time:
	user time   =      13.63 seconds =       0.23 minutes
	system time =       0.15 seconds =       0.00 minutes
	total time  =         15 seconds =       0.25 minutes

			-----------------------------------------
			 OPTKING 2.0: for geometry optimizations 
			  - R.A. King,  Bethel University        
			-----------------------------------------

	Previous internal coordinate definitions found.
	---Fragment 1 Geometry and Gradient---
	 H          -1.2774109568        2.3270073906        0.0000000000
	 O          -1.2774109568        0.3549991322        0.0000000000
	 C           1.2938722501       -0.4711044788        0.0000000000
	 H           1.2397481056       -2.7152426428        0.0000000000
	 H           2.4525932543        0.1817508642        1.8560069193
	 H           2.4525932543        0.1817508642       -1.8560069193
	            -0.0023253346        0.0562295004        0.0000000000
	            -0.0130970154       -0.0497435511        0.0000000000
	            -0.0277237896        0.0122266231        0.0000000000
	            -0.0015673826       -0.0442981003        0.0000000000
	             0.0223589424        0.0127934212        0.0387665842
	             0.0223589424        0.0127934212       -0.0387665842

	---Fragment 1 Intrafragment Coordinates---
	 - Coordinate -           - BOHR/RAD -       - ANG/DEG -
	 R(1,2)           =         1.972008	       1.043542
	 R(2,3)           =         2.700730	       1.429165
	 R(3,4)           =         2.244791	       1.187892
	 R(3,5)           =         2.283334	       1.208289
	 R(3,6)           =         2.283334	       1.208289
	 B(1,2,3)         =         1.881661	     107.811208
	 B(2,3,4)         =         1.857547	     106.429616
	 B(2,3,5)         =         1.977613	     113.308851
	 B(2,3,6)         =         1.977613	     113.308851
	 B(4,3,5)         =         1.873471	     107.341982
	 B(4,3,6)         =         1.873471	     107.341982
	 B(5,3,6)         =         1.898055	     108.750525
	 D(1,2,3,4)       =         3.141593	     180.000000
	 D(1,2,3,5)       =         1.086677	      62.262027
	 D(1,2,3,6)       =        -1.086677	     -62.262027
	*D(2,4,3,6)       =        -2.122641	    -121.618362

	Current energy   :      -115.7046243055

	Energy change for the previous step:
		Projected    :        -0.0042161430
		Actual       :         0.0164678593

	Performing BFGS update.
	Previous computed or guess Hessian on step 1.
	Steps to be used in Hessian update: 1
	Taking RFO optimization step.
	Going to follow RFO solution 1.
	Using RFO vector 1.
	Norm of target step-size    0.32136
	Projected energy change by RFO approximation:        -0.0273827022

	Back-transformation to cartesian coordinates...
	Could not converge backtransformation.
	Using first guess instead.

	Back-transformation to cartesian coordinates to adjust frozen coordinates...
	Successfully converged to displaced geometry.

	--- Internal Coordinate Step in ANG or DEG, aJ/ANG or AJ/DEG ---
	 ---------------------------------------------------------------------------
	   Coordinate                Previous        Force       Change         New 
	   ----------                --------       ------       ------       ------
	    1 R(1,2)          =      1.043542    -0.463248    -0.071310     0.972232
	    2 R(2,3)          =      1.429165    -0.137332    -0.011434     1.417731
	    3 R(3,4)          =      1.187892    -0.365165    -0.080523     1.107369
	    4 R(3,5)          =      1.208289    -0.383229    -0.091818     1.116470
	    5 R(3,6)          =      1.208289    -0.383229    -0.092071     1.116217
	    6 B(1,2,3)        =    107.811208    -0.000349    -0.266572   107.544636
	    7 B(2,3,4)        =    106.429616     0.000050     0.156965   106.586581
	    8 B(2,3,5)        =    113.308851     0.000114     0.542780   113.851630
	    9 B(2,3,6)        =    113.308851    -0.000017     0.191590   113.500441
	   10 B(4,3,5)        =    107.341982     0.000013    -0.040962   107.301020
	   11 B(4,3,6)        =    107.341982    -0.000013    -0.578232   106.763750
	   12 B(5,3,6)        =    108.750525    -0.000145    -0.340902   108.409623
	   13 D(1,2,3,4)      =    180.000000     0.000008     0.285887   180.285887
	   14 D(1,2,3,5)      =     62.262027    -0.000018    -0.073517    62.188510
	   15 D(1,2,3,6)      =    -62.262027     0.000009    -0.214392   -62.476419
	   16 *D(2,4,3,6)     =   -121.618362     0.000000    -0.000000  -121.618362
	 ---------------------------------------------------------------------------
	Successfully symmetrized geometry.

  ==> Convergence Check <==

  Measures of convergence in internal coordinates in au.
  Criteria marked as inactive (o), active & met (*), and active & unmet ( ).
  ---------------------------------------------------------------------------------------------
   Step     Total Energy     Delta E     MAX Force     RMS Force      MAX Disp      RMS Disp   
  ---------------------------------------------------------------------------------------------
    Convergence Criteria    1.00e-06 *    3.00e-04 *             o    1.20e-03 *             o
  ---------------------------------------------------------------------------------------------
      2    -115.70462431    1.65e-02      5.62e-02      2.47e-02 o    1.74e-01      8.00e-02 o  ~
  ---------------------------------------------------------------------------------------------

	Writing optimization data to binary file.
	Structure for next step:
	Cartesian Geometry (in Angstrom)
	    H    -0.6300236102   1.1862341800   0.0000000000
	    O    -0.6525539750   0.2142798338   0.0000000000
	    C     0.6889505993  -0.2442661987   0.0000000000
	    H     0.6447655801  -1.3506915617   0.0000000000
	    H     1.2666774645   0.0599575131   0.9054408445
	    H     1.2666774645   0.0599575131  -0.9054408445
			--------------------------
			 OPTKING Finished Execution 
			--------------------------

    Structure for next step:
    Molecular point group: cs
    Full point group: Cs

    Geometry (in Angstrom), charge = 0, multiplicity = 1:

    H       
    O             1          r1
    C             2          r2      1          a1
    H             3          r3      2          a2      1          d1
    H             3          r4      4          a3      2          d2
    H             3          r4      4          a3      2          d3

    a1        =  107.5432784893
    a2        =  106.5842964040
    a3        =  107.0353003490
    d1        = -180.0000000000
    d2        =  121.9701826858
    d3        = -121.9701826858
    r1        =    0.9722154435
    r2        =    1.4177090628
    r3        =    1.1073072744
    r4        =    1.1163079864

gradient() will perform analytic gradient computation.

*** tstart() called on blogin3
*** at Mon Jan 28 19:27:30 2019

   => Loading Basis Set <=

    Name: CC-PVDZ
    Role: ORBITAL
    Keyword: BASIS
    atoms 1, 4-6 entry H          line    22 file /home/kmoore/miniconda/envs/esenv/share/psi4/basis/cc-pvdz.gbs 
    atoms 2      entry O          line   198 file /home/kmoore/miniconda/envs/esenv/share/psi4/basis/cc-pvdz.gbs 
    atoms 3      entry C          line   138 file /home/kmoore/miniconda/envs/esenv/share/psi4/basis/cc-pvdz.gbs 


         ---------------------------------------------------------
                                   SCF
            by Justin Turney, Rob Parrish, Andy Simmonett
                             and Daniel Smith
                              RKS Reference
                        1 Threads,    500 MiB Core
         ---------------------------------------------------------

  ==> Geometry <==

    Molecular point group: cs
    Full point group: Cs

    Geometry (in Angstrom), charge = 0, multiplicity = 1:

       Center              X                  Y                   Z               Mass       
    ------------   -----------------  -----------------  -----------------  -----------------
         H           -0.669438732151     1.156939490543     0.000000000000     1.007825032070
         O           -0.669438732151     0.184724047073     0.000000000000    15.994914619560
         C            0.682332029920    -0.242610474871     0.000000000000    12.000000000000
         H            0.663799456158    -1.349762652098     0.000000000000     1.007825032070
         H            1.252853584642     0.074919922361     0.905440844490     1.007825032070
         H            1.252853584642     0.074919922361    -0.905440844490     1.007825032070

  Running in cs symmetry.

  Rotational constants: A =      4.17670  B =      0.82104  C =      0.79281 [cm^-1]
  Rotational constants: A = 125214.45831  B =  24614.25043  C =  23767.86408 [MHz]
  Nuclear repulsion =   40.034983768750394

  Charge       = 0
  Multiplicity = 1
  Electrons    = 18
  Nalpha       = 9
  Nbeta        = 9

  ==> Algorithm <==

  SCF Algorithm Type is PK.
  DIIS enabled.
  MOM disabled.
  Fractional occupation disabled.
  Guess Type is READ.
  Energy threshold   = 1.00e-08
  Density threshold  = 1.00e-08
  Integral threshold = 0.00e+00

  ==> Primary Basis <==

  Basis Set: CC-PVDZ
    Blend: CC-PVDZ
    Number of shells: 24
    Number of basis function: 48
    Number of Cartesian functions: 50
    Spherical Harmonics?: true
    Max angular momentum: 2

  ==> DFT Potential <==

   => Composite Functional: B3LYP <= 

    B3LYP Hyb-GGA Exchange-Correlation Functional

    P. J. Stephens, F. J. Devlin, C. F. Chabalowski, and M. J. Frisch, J. Phys. Chem. 98, 11623 (1994)

    Deriv               =              1
    GGA                 =           TRUE
    Meta                =          FALSE

    Exchange Hybrid     =           TRUE
    MP2 Hybrid          =          FALSE

   => Exchange Functionals <=

    0.0800   Slater exchange
    0.7200         Becke 88

   => Exact (HF) Exchange <=

    0.2000               HF 

   => Correlation Functionals <=

    0.1900   Vosko, Wilk & Nusair (VWN5_RPA)
    0.8100   Lee, Yang & Parr

   => Molecular Quadrature <=

    Radial Scheme       =       TREUTLER
    Pruning Scheme      =           FLAT
    Nuclear Scheme      =       TREUTLER

    BS radius alpha     =              1
    Pruning alpha       =              1
    Radial Points       =             75
    Spherical Points    =            302
    Total Points        =         133372
    Total Blocks        =           1070
    Max Points          =            256
    Max Functions       =             48

  Reading orbitals from file 180, no projection.

  ==> Pre-Iterations <==

   -------------------------------------------------------
    Irrep   Nso     Nmo     Nalpha   Nbeta   Ndocc  Nsocc
   -------------------------------------------------------
     A'        33      33       0       0       0       0
     A"        15      15       0       0       0       0
   -------------------------------------------------------
    Total      48      48       9       9       9       0
   -------------------------------------------------------

  ==> Integral Setup <==

  Using in-core PK algorithm.
   Calculation information:
      Number of atoms:                   6
      Number of AO shells:              24
      Number of primitives:             64
      Number of atomic orbitals:        50
      Number of basis functions:        48

      Integral cutoff                 1.00e-12
      Number of threads:                 1

  Performing in-core PK
  Using 1384152 doubles for integral storage.
  We computed 45150 shell quartets total.
  Whereas there are 45150 unique shell quartets.

  ==> DiskJK: Disk-Based J/K Matrices <==

    J tasked:                  Yes
    K tasked:                  Yes
    wK tasked:                  No
    Memory (MB):               375
    Schwarz Cutoff:          1E-12

    OpenMP threads:              1

  Minimum eigenvalue in the overlap matrix is 1.6975367415E-02.
  Using Symmetric Orthogonalization.

  SCF Guess: Orbitals guess was supplied from a previous computation.

  ==> Iterations <==

                        Total Energy        Delta E     RMS |[F,P]|

   @RKS iter   0:  -115.83672573378928   -1.15837e+02   6.36210e-03 
   @RKS iter   1:  -115.72078208213583    1.15944e-01   1.56323e-03 
   @RKS iter   2:  -115.72059574075791    1.86341e-04   1.76229e-03 DIIS
   @RKS iter   3:  -115.72264763210364   -2.05189e-03   1.24071e-04 DIIS
   @RKS iter   4:  -115.72265379155864   -6.15945e-06   5.14287e-05 DIIS
   @RKS iter   5:  -115.72265492365318   -1.13209e-06   2.08424e-05 DIIS
   @RKS iter   6:  -115.72265513577915   -2.12126e-07   1.26465e-06 DIIS
   @RKS iter   7:  -115.72265513694445   -1.16530e-09   1.85655e-07 DIIS
   @RKS iter   8:  -115.72265513697417   -2.97149e-11   2.51298e-08 DIIS
   @RKS iter   9:  -115.72265513697455   -3.83693e-13   3.37409e-09 DIIS

  ==> Post-Iterations <==

    Orbital Energies [Eh]
    ---------------------

    Doubly Occupied:                                                      

       1Ap   -19.131922     2Ap   -10.229017     3Ap    -1.010370  
       4Ap    -0.673739     5Ap    -0.499277     1App   -0.430177  
       6Ap    -0.416013     7Ap    -0.327959     2App   -0.265377  

    Virtual:                                                              

       8Ap     0.054522     9Ap     0.090311    10Ap     0.132524  
       3App    0.135735    11Ap     0.196461    12Ap     0.441909  
       4App    0.462325    13Ap     0.487198    14Ap     0.568951  
       5App    0.623356    15Ap     0.644339    16Ap     0.646123  
      17Ap     0.867696     6App    0.896665    18Ap     0.955823  
      19Ap     1.008080     7App    1.060136    20Ap     1.200655  
       8App    1.339996    21Ap     1.385723     9App    1.407848  
      10App    1.589920    22Ap     1.613776    23Ap     1.646210  
      11App    1.647353    24Ap     1.724102    25Ap     1.836114  
      26Ap     1.977825    12App    2.057309    27Ap     2.088448  
      28Ap     2.151093    13App    2.367762    29Ap     2.378419  
      30Ap     2.403846    14App    2.926367    15App    3.012913  
      31Ap     3.051106    32Ap     3.196133    33Ap     3.661575  

    Final Occupation by Irrep:
             Ap   App 
    DOCC [     7,    2 ]

  Energy converged.

  @RKS Final Energy:  -115.72265513697455

   => Energetics <=

    Nuclear Repulsion Energy =             40.0349837687503936
    One-Electron Energy =                -236.5366411900469075
    Two-Electron Energy =                  93.3226365681187247
    DFT Exchange-Correlation Energy =     -12.5436342837967825
    Empirical Dispersion Energy =           0.0000000000000000
    VV10 Nonlocal Energy =                  0.0000000000000000
    Total Energy =                       -115.7226551369745522



Properties will be evaluated at   0.000000,   0.000000,   0.000000 [a0]

Properties computed using the SCF density matrix

  Nuclear Dipole Moment: [e a0]
     X:     2.3405      Y:    -0.0394      Z:     0.0000

  Electronic Dipole Moment: [e a0]
     X:    -1.8962      Y:     0.4498      Z:     0.0000

  Dipole Moment: [e a0]
     X:     0.4443      Y:     0.4104      Z:     0.0000     Total:     0.6048

  Dipole Moment: [D]
     X:     1.1292      Y:     1.0430      Z:     0.0000     Total:     1.5372


*** tstop() called on blogin3 at Mon Jan 28 19:27:34 2019
Module time:
	user time   =       4.49 seconds =       0.07 minutes
	system time =       0.06 seconds =       0.00 minutes
	total time  =          4 seconds =       0.07 minutes
Total time:
	user time   =      18.13 seconds =       0.30 minutes
	system time =       0.21 seconds =       0.00 minutes
	total time  =         19 seconds =       0.32 minutes

*** tstart() called on blogin3
*** at Mon Jan 28 19:27:34 2019


         ------------------------------------------------------------
                                   SCF GRAD                          
                          Rob Parrish, Justin Turney,                
                       Andy Simmonett, and Alex Sokolov              
         ------------------------------------------------------------

  ==> Geometry <==

    Molecular point group: cs
    Full point group: Cs

    Geometry (in Angstrom), charge = 0, multiplicity = 1:

       Center              X                  Y                   Z               Mass       
    ------------   -----------------  -----------------  -----------------  -----------------
         H           -0.669438732151     1.156939490543     0.000000000000     1.007825032070
         O           -0.669438732151     0.184724047073     0.000000000000    15.994914619560
         C            0.682332029920    -0.242610474871     0.000000000000    12.000000000000
         H            0.663799456158    -1.349762652098     0.000000000000     1.007825032070
         H            1.252853584642     0.074919922361     0.905440844490     1.007825032070
         H            1.252853584642     0.074919922361    -0.905440844490     1.007825032070

  Nuclear repulsion =   40.034983768750394

  ==> Basis Set <==

  Basis Set: CC-PVDZ
    Blend: CC-PVDZ
    Number of shells: 24
    Number of basis function: 48
    Number of Cartesian functions: 50
    Spherical Harmonics?: true
    Max angular momentum: 2

  ==> DirectJKGrad: Integral-Direct SCF Gradients <==

    Gradient:                    1
    J tasked:                  Yes
    K tasked:                  Yes
    wK tasked:                  No
    Integrals threads:           1
    Schwarz Cutoff:          0E+00

  ==> DFT Potential <==

   => Composite Functional: B3LYP <= 

    B3LYP Hyb-GGA Exchange-Correlation Functional

    P. J. Stephens, F. J. Devlin, C. F. Chabalowski, and M. J. Frisch, J. Phys. Chem. 98, 11623 (1994)

    Deriv               =              1
    GGA                 =           TRUE
    Meta                =          FALSE

    Exchange Hybrid     =           TRUE
    MP2 Hybrid          =          FALSE

   => Exchange Functionals <=

    0.0800   Slater exchange
    0.7200         Becke 88

   => Exact (HF) Exchange <=

    0.2000               HF 

   => Correlation Functionals <=

    0.1900   Vosko, Wilk & Nusair (VWN5_RPA)
    0.8100   Lee, Yang & Parr

   => Molecular Quadrature <=

    Radial Scheme       =       TREUTLER
    Pruning Scheme      =           FLAT
    Nuclear Scheme      =       TREUTLER

    BS radius alpha     =              1
    Pruning alpha       =              1
    Radial Points       =             75
    Spherical Points    =            302
    Total Points        =         133372
    Total Blocks        =           1070
    Max Points          =            256
    Max Functions       =             48


  -Total Gradient:
     Atom            X                  Y                   Z
    ------   -----------------  -----------------  -----------------
       1       -0.000080706008     0.004232886470     0.000000000000
       2       -0.002728583423    -0.004817897550     0.000000000000
       3       -0.002706299009     0.004546393315     0.000000000000
       4       -0.000125077937    -0.003587447406     0.000000000000
       5        0.002822435859    -0.000186569446     0.003835687518
       6        0.002822435859    -0.000186569446    -0.003835687518


*** tstop() called on blogin3 at Mon Jan 28 19:27:36 2019
Module time:
	user time   =       1.89 seconds =       0.03 minutes
	system time =       0.00 seconds =       0.00 minutes
	total time  =          2 seconds =       0.03 minutes
Total time:
	user time   =      20.02 seconds =       0.33 minutes
	system time =       0.21 seconds =       0.00 minutes
	total time  =         21 seconds =       0.35 minutes

			-----------------------------------------
			 OPTKING 2.0: for geometry optimizations 
			  - R.A. King,  Bethel University        
			-----------------------------------------

	Previous internal coordinate definitions found.
	---Fragment 1 Geometry and Gradient---
	 H          -1.2650558665        2.1862987894        0.0000000000
	 O          -1.2650558665        0.3490778591        0.0000000000
	 C           1.2894206682       -0.4584673545        0.0000000000
	 H           1.2543991793       -2.5506817569        0.0000000000
	 H           2.3675501596        0.1415781352        1.7110352256
	 H           2.3675501596        0.1415781352       -1.7110352256
	            -0.0000807060        0.0042328865        0.0000000000
	            -0.0027285834       -0.0048178975        0.0000000000
	            -0.0027062990        0.0045463933        0.0000000000
	            -0.0001250779       -0.0035874474        0.0000000000
	             0.0028224359       -0.0001865694        0.0038356875
	             0.0028224359       -0.0001865694       -0.0038356875

	---Fragment 1 Intrafragment Coordinates---
	 - Coordinate -           - BOHR/RAD -       - ANG/DEG -
	 R(1,2)           =         1.837221	       0.972215
	 R(2,3)           =         2.679082	       1.417709
	 R(3,4)           =         2.092507	       1.107307
	 R(3,5)           =         2.109516	       1.116308
	 R(3,6)           =         2.109516	       1.116308
	 B(1,2,3)         =         1.876984	     107.543278
	 B(2,3,4)         =         1.860247	     106.584296
	 B(2,3,5)         =         1.984025	     113.676284
	 B(2,3,6)         =         1.984025	     113.676284
	 B(4,3,5)         =         1.868118	     107.035300
	 B(4,3,6)         =         1.868118	     107.035300
	 B(5,3,6)         =         1.892071	     108.407691
	 D(1,2,3,4)       =         3.141593	     180.000000
	 D(1,2,3,5)       =         1.087890	      62.331512
	 D(1,2,3,6)       =        -1.087890	     -62.331512
	*D(2,4,3,6)       =        -2.128781	    -121.970183

	Current energy   :      -115.7226551370

	Energy change for the previous step:
		Projected    :        -0.0273827022
		Actual       :        -0.0180308315

	Performing BFGS update.
	Previous computed or guess Hessian on step 1.
	Steps to be used in Hessian update: 2 1
	Taking RFO optimization step.
	Going to follow RFO solution 1.
	Using RFO vector 1.
	Norm of target step-size    0.04354
	Projected energy change by RFO approximation:        -0.0005720391

	Back-transformation to cartesian coordinates...
	Could not converge backtransformation.
	Using first guess instead.

	Back-transformation to cartesian coordinates to adjust frozen coordinates...
	Successfully converged to displaced geometry.

	--- Internal Coordinate Step in ANG or DEG, aJ/ANG or AJ/DEG ---
	 ---------------------------------------------------------------------------
	   Coordinate                Previous        Force       Change         New 
	   ----------                --------       ------       ------       ------
	    1 R(1,2)          =      0.972215    -0.034864    -0.006551     0.965665
	    2 R(2,3)          =      1.417709    -0.020631    -0.001663     1.416046
	    3 R(3,4)          =      1.107307    -0.029568    -0.007505     1.099803
	    4 R(3,5)          =      1.116308    -0.037077    -0.009752     1.106556
	    5 R(3,6)          =      1.116308    -0.037077    -0.009759     1.106549
	    6 B(1,2,3)        =    107.543278    -0.000012     0.130592   107.673870
	    7 B(2,3,4)        =    106.584296     0.000109     0.611643   107.195939
	    8 B(2,3,5)        =    113.676284    -0.000139    -0.636489   113.039795
	    9 B(2,3,6)        =    113.676284    -0.000091    -0.535888   113.140396
	   10 B(4,3,5)        =    107.035300     0.000077     0.529238   107.564538
	   11 B(4,3,6)        =    107.035300     0.000087     0.532395   107.567695
	   12 B(5,3,6)        =    108.407691    -0.000016    -0.352406   108.055285
	   13 D(1,2,3,4)      =    180.000000    -0.000003    -0.020701   179.979299
	   14 D(1,2,3,5)      =     62.331512    -0.000023    -0.705129    61.626384
	   15 D(1,2,3,6)      =    -62.331512     0.000026     0.726182   -61.605331
	   16 *D(2,4,3,6)     =   -121.970183     0.000000    -0.000000  -121.970183
	 ---------------------------------------------------------------------------
	Successfully symmetrized geometry.

  ==> Convergence Check <==

  Measures of convergence in internal coordinates in au.
  Criteria marked as inactive (o), active & met (*), and active & unmet ( ).
  ---------------------------------------------------------------------------------------------
   Step     Total Energy     Delta E     MAX Force     RMS Force      MAX Disp      RMS Disp   
  ---------------------------------------------------------------------------------------------
    Convergence Criteria    1.00e-06 *    3.00e-04 *             o    1.20e-03 *             o
  ---------------------------------------------------------------------------------------------
      3    -115.72265514   -1.80e-02      4.50e-03      2.38e-03 o    1.84e-02      1.09e-02 o  ~
  ---------------------------------------------------------------------------------------------

	Writing optimization data to binary file.
	Structure for next step:
	Cartesian Geometry (in Angstrom)
	    H    -0.6603755348   1.1531751539   0.0000000000
	    O    -0.6649567310   0.1875214141   0.0000000000
	    C     0.6821973828  -0.2487841065   0.0000000000
	    H     0.6678064153  -1.3484925074   0.0000000000
	    H     1.2441448293   0.0778551506   0.8955332416
	    H     1.2441448293   0.0778551506  -0.8955332416
			--------------------------
			 OPTKING Finished Execution 
			--------------------------

    Structure for next step:
    Molecular point group: cs
    Full point group: Cs

    Geometry (in Angstrom), charge = 0, multiplicity = 1:

    H       
    O             1          r1
    C             2          r2      1          a1
    H             3          r3      2          a2      1          d1
    H             3          r4      4          a3      2          d2
    H             3          r4      4          a3      2          d3

    a1        =  107.6738707031
    a2        =  107.1959485135
    a3        =  107.5661235886
    d1        = -180.0000000000
    d2        =  121.9094475398
    d3        = -121.9094475398
    r1        =    0.9656646066
    r2        =    1.4160461552
    r3        =    1.0998025582
    r4        =    1.1065522688

gradient() will perform analytic gradient computation.

*** tstart() called on blogin3
*** at Mon Jan 28 19:27:36 2019

   => Loading Basis Set <=

    Name: CC-PVDZ
    Role: ORBITAL
    Keyword: BASIS
    atoms 1, 4-6 entry H          line    22 file /home/kmoore/miniconda/envs/esenv/share/psi4/basis/cc-pvdz.gbs 
    atoms 2      entry O          line   198 file /home/kmoore/miniconda/envs/esenv/share/psi4/basis/cc-pvdz.gbs 
    atoms 3      entry C          line   138 file /home/kmoore/miniconda/envs/esenv/share/psi4/basis/cc-pvdz.gbs 


         ---------------------------------------------------------
                                   SCF
            by Justin Turney, Rob Parrish, Andy Simmonett
                             and Daniel Smith
                              RKS Reference
                        1 Threads,    500 MiB Core
         ---------------------------------------------------------

  ==> Geometry <==

    Molecular point group: cs
    Full point group: Cs

    Geometry (in Angstrom), charge = 0, multiplicity = 1:

       Center              X                  Y                   Z               Mass       
    ------------   -----------------  -----------------  -----------------  -----------------
         H           -0.667893882260     1.150829433816     0.000000000000     1.007825032070
         O           -0.667893882260     0.185164827202     0.000000000000    15.994914619560
         C            0.681314942703    -0.244744768255     0.000000000000    12.000000000000
         H            0.672141248654    -1.344509065872     0.000000000000     1.007825032070
         H            1.241706460654     0.084556740200     0.895533241574     1.007825032070
         H            1.241706460654     0.084556740200    -0.895533241574     1.007825032070

  Running in cs symmetry.

  Rotational constants: A =      4.23246  B =      0.82610  C =      0.79682 [cm^-1]
  Rotational constants: A = 126885.97189  B =  24765.79879  C =  23887.93520 [MHz]
  Nuclear repulsion =   40.198982539357367

  Charge       = 0
  Multiplicity = 1
  Electrons    = 18
  Nalpha       = 9
  Nbeta        = 9

  ==> Algorithm <==

  SCF Algorithm Type is PK.
  DIIS enabled.
  MOM disabled.
  Fractional occupation disabled.
  Guess Type is READ.
  Energy threshold   = 1.00e-08
  Density threshold  = 1.00e-08
  Integral threshold = 0.00e+00

  ==> Primary Basis <==

  Basis Set: CC-PVDZ
    Blend: CC-PVDZ
    Number of shells: 24
    Number of basis function: 48
    Number of Cartesian functions: 50
    Spherical Harmonics?: true
    Max angular momentum: 2

  ==> DFT Potential <==

   => Composite Functional: B3LYP <= 

    B3LYP Hyb-GGA Exchange-Correlation Functional

    P. J. Stephens, F. J. Devlin, C. F. Chabalowski, and M. J. Frisch, J. Phys. Chem. 98, 11623 (1994)

    Deriv               =              1
    GGA                 =           TRUE
    Meta                =          FALSE

    Exchange Hybrid     =           TRUE
    MP2 Hybrid          =          FALSE

   => Exchange Functionals <=

    0.0800   Slater exchange
    0.7200         Becke 88

   => Exact (HF) Exchange <=

    0.2000               HF 

   => Correlation Functionals <=

    0.1900   Vosko, Wilk & Nusair (VWN5_RPA)
    0.8100   Lee, Yang & Parr

   => Molecular Quadrature <=

    Radial Scheme       =       TREUTLER
    Pruning Scheme      =           FLAT
    Nuclear Scheme      =       TREUTLER

    BS radius alpha     =              1
    Pruning alpha       =              1
    Radial Points       =             75
    Spherical Points    =            302
    Total Points        =         133366
    Total Blocks        =           1068
    Max Points          =            256
    Max Functions       =             48

  Reading orbitals from file 180, no projection.

  ==> Pre-Iterations <==

   -------------------------------------------------------
    Irrep   Nso     Nmo     Nalpha   Nbeta   Ndocc  Nsocc
   -------------------------------------------------------
     A'        33      33       0       0       0       0
     A"        15      15       0       0       0       0
   -------------------------------------------------------
    Total      48      48       9       9       9       0
   -------------------------------------------------------

  ==> Integral Setup <==

  Using in-core PK algorithm.
   Calculation information:
      Number of atoms:                   6
      Number of AO shells:              24
      Number of primitives:             64
      Number of atomic orbitals:        50
      Number of basis functions:        48

      Integral cutoff                 1.00e-12
      Number of threads:                 1

  Performing in-core PK
  Using 1384152 doubles for integral storage.
  We computed 45150 shell quartets total.
  Whereas there are 45150 unique shell quartets.

  ==> DiskJK: Disk-Based J/K Matrices <==

    J tasked:                  Yes
    K tasked:                  Yes
    wK tasked:                  No
    Memory (MB):               375
    Schwarz Cutoff:          1E-12

    OpenMP threads:              1

  Minimum eigenvalue in the overlap matrix is 1.6785667235E-02.
  Using Symmetric Orthogonalization.

  SCF Guess: Orbitals guess was supplied from a previous computation.

  ==> Iterations <==

                        Total Energy        Delta E     RMS |[F,P]|

   @RKS iter   0:  -115.73520979152214   -1.15735e+02   7.15883e-04 
   @RKS iter   1:  -115.72277809865756    1.24317e-02   1.78265e-04 
   @RKS iter   2:  -115.72277394504923    4.15361e-06   2.07527e-04 DIIS
   @RKS iter   3:  -115.72280203573743   -2.80907e-05   1.76662e-05 DIIS
   @RKS iter   4:  -115.72280213052611   -9.47887e-08   9.79249e-06 DIIS
   @RKS iter   5:  -115.72280217529998   -4.47739e-08   1.77319e-06 DIIS
   @RKS iter   6:  -115.72280217696360   -1.66362e-09   1.49957e-07 DIIS
   @RKS iter   7:  -115.72280217697916   -1.55609e-11   2.14788e-08 DIIS
   @RKS iter   8:  -115.72280217697944   -2.84217e-13   2.07843e-09 DIIS

  ==> Post-Iterations <==

    Orbital Energies [Eh]
    ---------------------

    Doubly Occupied:                                                      

       1Ap   -19.129988     2Ap   -10.226365     3Ap    -1.011229  
       4Ap    -0.676014     5Ap    -0.500486     1App   -0.431528  
       6Ap    -0.417765     7Ap    -0.328142     2App   -0.264489  

    Virtual:                                                              

       8Ap     0.055614     9Ap     0.092450    10Ap     0.134970  
       3App    0.137086    11Ap     0.197221    12Ap     0.444527  
       4App    0.460464    13Ap     0.487835    14Ap     0.572587  
       5App    0.626930    15Ap     0.650032    16Ap     0.653060  
      17Ap     0.867919     6App    0.897673    18Ap     0.955578  
      19Ap     1.009544     7App    1.062874    20Ap     1.200847  
       8App    1.342139    21Ap     1.391370     9App    1.412493  
      10App    1.596701    22Ap     1.617572    23Ap     1.647345  
      11App    1.656373    24Ap     1.730097    25Ap     1.846831  
      26Ap     1.989996    12App    2.065211    27Ap     2.090082  
      28Ap     2.168256    13App    2.385446    29Ap     2.396995  
      30Ap     2.415245    14App    2.932703    15App    3.017149  
      31Ap     3.056375    32Ap     3.202364    33Ap     3.670892  

    Final Occupation by Irrep:
             Ap   App 
    DOCC [     7,    2 ]

  Energy converged.

  @RKS Final Energy:  -115.72280217697944

   => Energetics <=

    Nuclear Repulsion Energy =             40.1989825393573668
    One-Electron Energy =                -236.8529229056016163
    Two-Electron Energy =                  93.4858948113924271
    DFT Exchange-Correlation Energy =     -12.5547566221276181
    Empirical Dispersion Energy =           0.0000000000000000
    VV10 Nonlocal Energy =                  0.0000000000000000
    Total Energy =                       -115.7228021769794424



Properties will be evaluated at   0.000000,   0.000000,   0.000000 [a0]

Properties computed using the SCF density matrix

  Nuclear Dipole Moment: [e a0]
     X:     2.3289      Y:    -0.0221      Z:     0.0000

  Electronic Dipole Moment: [e a0]
     X:    -1.8780      Y:     0.4304      Z:     0.0000

  Dipole Moment: [e a0]
     X:     0.4509      Y:     0.4083      Z:     0.0000     Total:     0.6083

  Dipole Moment: [D]
     X:     1.1461      Y:     1.0378      Z:     0.0000     Total:     1.5461


*** tstop() called on blogin3 at Mon Jan 28 19:27:40 2019
Module time:
	user time   =       4.11 seconds =       0.07 minutes
	system time =       0.05 seconds =       0.00 minutes
	total time  =          4 seconds =       0.07 minutes
Total time:
	user time   =      24.14 seconds =       0.40 minutes
	system time =       0.26 seconds =       0.00 minutes
	total time  =         25 seconds =       0.42 minutes

*** tstart() called on blogin3
*** at Mon Jan 28 19:27:40 2019


         ------------------------------------------------------------
                                   SCF GRAD                          
                          Rob Parrish, Justin Turney,                
                       Andy Simmonett, and Alex Sokolov              
         ------------------------------------------------------------

  ==> Geometry <==

    Molecular point group: cs
    Full point group: Cs

    Geometry (in Angstrom), charge = 0, multiplicity = 1:

       Center              X                  Y                   Z               Mass       
    ------------   -----------------  -----------------  -----------------  -----------------
         H           -0.667893882260     1.150829433816     0.000000000000     1.007825032070
         O           -0.667893882260     0.185164827202     0.000000000000    15.994914619560
         C            0.681314942703    -0.244744768255     0.000000000000    12.000000000000
         H            0.672141248654    -1.344509065872     0.000000000000     1.007825032070
         H            1.241706460654     0.084556740200     0.895533241574     1.007825032070
         H            1.241706460654     0.084556740200    -0.895533241574     1.007825032070

  Nuclear repulsion =   40.198982539357367

  ==> Basis Set <==

  Basis Set: CC-PVDZ
    Blend: CC-PVDZ
    Number of shells: 24
    Number of basis function: 48
    Number of Cartesian functions: 50
    Spherical Harmonics?: true
    Max angular momentum: 2

  ==> DirectJKGrad: Integral-Direct SCF Gradients <==

    Gradient:                    1
    J tasked:                  Yes
    K tasked:                  Yes
    wK tasked:                  No
    Integrals threads:           1
    Schwarz Cutoff:          0E+00

  ==> DFT Potential <==

   => Composite Functional: B3LYP <= 

    B3LYP Hyb-GGA Exchange-Correlation Functional

    P. J. Stephens, F. J. Devlin, C. F. Chabalowski, and M. J. Frisch, J. Phys. Chem. 98, 11623 (1994)

    Deriv               =              1
    GGA                 =           TRUE
    Meta                =          FALSE

    Exchange Hybrid     =           TRUE
    MP2 Hybrid          =          FALSE

   => Exchange Functionals <=

    0.0800   Slater exchange
    0.7200         Becke 88

   => Exact (HF) Exchange <=

    0.2000               HF 

   => Correlation Functionals <=

    0.1900   Vosko, Wilk & Nusair (VWN5_RPA)
    0.8100   Lee, Yang & Parr

   => Molecular Quadrature <=

    Radial Scheme       =       TREUTLER
    Pruning Scheme      =           FLAT
    Nuclear Scheme      =       TREUTLER

    BS radius alpha     =              1
    Pruning alpha       =              1
    Radial Points       =             75
    Spherical Points    =            302
    Total Points        =         133366
    Total Blocks        =           1068
    Max Points          =            256
    Max Functions       =             48


  -Total Gradient:
     Atom            X                  Y                   Z
    ------   -----------------  -----------------  -----------------
       1       -0.000262515462    -0.001766541028     0.000000000000
       2        0.000153895667     0.002186832029     0.000000000000
       3        0.000979105444    -0.000046193985     0.000000000000
       4        0.000466337106     0.000851226110     0.000000000000
       5       -0.000666689852    -0.000611274713    -0.001239782368
       6       -0.000666689852    -0.000611274713     0.001239782368


*** tstop() called on blogin3 at Mon Jan 28 19:27:42 2019
Module time:
	user time   =       1.91 seconds =       0.03 minutes
	system time =       0.00 seconds =       0.00 minutes
	total time  =          2 seconds =       0.03 minutes
Total time:
	user time   =      26.05 seconds =       0.43 minutes
	system time =       0.26 seconds =       0.00 minutes
	total time  =         27 seconds =       0.45 minutes

			-----------------------------------------
			 OPTKING 2.0: for geometry optimizations 
			  - R.A. King,  Bethel University        
			-----------------------------------------

	Previous internal coordinate definitions found.
	---Fragment 1 Geometry and Gradient---
	 H          -1.2621365233        2.1747524556        0.0000000000
	 O          -1.2621365233        0.3499108129        0.0000000000
	 C           1.2874986520       -0.4625005845        0.0000000000
	 H           1.2701628826       -2.5407539177        0.0000000000
	 H           2.3464851481        0.1597890817        1.6923125695
	 H           2.3464851481        0.1597890817       -1.6923125695
	            -0.0002625155       -0.0017665410        0.0000000000
	             0.0001538957        0.0021868320        0.0000000000
	             0.0009791054       -0.0000461940        0.0000000000
	             0.0004663371        0.0008512261        0.0000000000
	            -0.0006666899       -0.0006112747       -0.0012397824
	            -0.0006666899       -0.0006112747        0.0012397824

	---Fragment 1 Intrafragment Coordinates---
	 - Coordinate -           - BOHR/RAD -       - ANG/DEG -
	 R(1,2)           =         1.824842	       0.965665
	 R(2,3)           =         2.675939	       1.416046
	 R(3,4)           =         2.078326	       1.099803
	 R(3,5)           =         2.091081	       1.106552
	 R(3,6)           =         2.091081	       1.106552
	 B(1,2,3)         =         1.879264	     107.673871
	 B(2,3,4)         =         1.870922	     107.195949
	 B(2,3,5)         =         1.973795	     113.090096
	 B(2,3,6)         =         1.973795	     113.090096
	 B(4,3,5)         =         1.877383	     107.566124
	 B(4,3,6)         =         1.877383	     107.566124
	 B(5,3,6)         =         1.885920	     108.055278
	 D(1,2,3,4)       =         3.141593	     180.000000
	 D(1,2,3,5)       =         1.075400	      61.615867
	 D(1,2,3,6)       =        -1.075400	     -61.615867
	*D(2,4,3,6)       =        -2.127721	    -121.909448

	Current energy   :      -115.7228021770

	Energy change for the previous step:
		Projected    :        -0.0005720391
		Actual       :        -0.0001470400

	Performing BFGS update.
	Previous computed or guess Hessian on step 1.
	Steps to be used in Hessian update: 3 2
	Taking RFO optimization step.
	Going to follow RFO solution 1.
	Using RFO vector 1.
	Norm of target step-size    0.01187
	Projected energy change by RFO approximation:        -0.0000368313

	Back-transformation to cartesian coordinates...
	Successfully converged to displaced geometry.
	First geometry is closer to target in internal coordinates, so am using that one.
	First geometry has RMS(Delta(q)) = 3.01e-06

	Back-transformation to cartesian coordinates to adjust frozen coordinates...
	Successfully converged to displaced geometry.

	--- Internal Coordinate Step in ANG or DEG, aJ/ANG or AJ/DEG ---
	 ---------------------------------------------------------------------------
	   Coordinate                Previous        Force       Change         New 
	   ----------                --------       ------       ------       ------
	    1 R(1,2)          =      0.965665     0.014566     0.002385     0.968050
	    2 R(2,3)          =      1.416046    -0.001915    -0.000361     1.415685
	    3 R(3,4)          =      1.099803     0.007043     0.001873     1.101675
	    4 R(3,5)          =      1.106552     0.012549     0.003213     1.109766
	    5 R(3,6)          =      1.106552     0.012549     0.003213     1.109765
	    6 B(1,2,3)        =    107.673871    -0.000037    -0.202671   107.471199
	    7 B(2,3,4)        =    107.195949    -0.000041    -0.202737   106.993212
	    8 B(2,3,5)        =    113.090096    -0.000014    -0.041858   113.048238
	    9 B(2,3,6)        =    113.090096     0.000007     0.037600   113.127696
	   10 B(4,3,5)        =    107.566124     0.000022     0.096587   107.662711
	   11 B(4,3,6)        =    107.566124     0.000027     0.124953   107.691077
	   12 B(5,3,6)        =    108.055278     0.000002    -0.002454   108.052824
	   13 D(1,2,3,4)      =    180.000000    -0.000001    -0.026991   179.973009
	   14 D(1,2,3,5)      =     61.615867     0.000000     0.010086    61.625953
	   15 D(1,2,3,6)      =    -61.615867     0.000001     0.016759   -61.599108
	   16 *D(2,4,3,6)     =   -121.909448     0.000000     0.000000  -121.909448
	 ---------------------------------------------------------------------------
[...]
  symmetry-adapted, cartesian coordinates (fd_freq_1).

  21 gradients passed in, including the reference geometry.
  Generating complete list of displacements from unique ones.

	Operation 2 takes plus displacements of irrep A" to minus ones.

-------------------------------------------------------------


  ==> Harmonic Vibrational Analysis <==

  non-mass-weighted Hessian:       Symmetric? True   Hermitian? True   Lin Dep Dim?  6 (0)
  projection of translations (True) and rotations (True) removed 6 degrees of freedom (6)
  total projector:                 Symmetric? True   Hermitian? True   Lin Dep Dim?  6 (6)
  mass-weighted Hessian:           Symmetric? True   Hermitian? True   Lin Dep Dim?  6 (0)
  pre-proj  low-frequency mode:    0.0000i [cm^-1]
  pre-proj  low-frequency mode:    0.0000i [cm^-1]
  pre-proj  low-frequency mode:    0.0000i [cm^-1]
  pre-proj  low-frequency mode:    0.0000  [cm^-1]
  pre-proj  low-frequency mode:    0.0000  [cm^-1]
  pre-proj  low-frequency mode:    0.0001  [cm^-1]
  pre-proj  all modes:['0.0000i' '0.0000i' '0.0000i' '0.0000' '0.0000' '0.0001' '334.2160'
 '1060.5552' '1090.4894' '1155.2392' '1377.4901' '1465.7572' '1467.2607'
 '1485.1321' '2965.0122' '3008.9699' '3102.0836' '3780.6960']
  projected mass-weighted Hessian: Symmetric? True   Hermitian? True   Lin Dep Dim?  6 (6)
  post-proj low-frequency mode:    0.0000i [cm^-1] (TR)
  post-proj low-frequency mode:    0.0000i [cm^-1] (TR)
  post-proj low-frequency mode:    0.0000i [cm^-1] (TR)
  post-proj low-frequency mode:    0.0000  [cm^-1] (TR)
  post-proj low-frequency mode:    0.0000  [cm^-1] (TR)
  post-proj low-frequency mode:    0.0000  [cm^-1] (TR)
  post-proj  all modes:['0.0000i' '0.0000i' '0.0000i' '0.0000' '0.0000' '0.0000' '334.2160'
 '1060.5552' '1090.4894' '1155.2392' '1377.4901' '1465.7572' '1467.2607'
 '1485.1321' '2965.0122' '3008.9699' '3102.0836' '3780.6960']

  Vibration                       7                   8                   9           
  Freq [cm^-1]                 334.2160           1060.5552           1090.4894       
  Irrep                          App                  Ap                  Ap          
  Reduced mass [u]              1.0696              1.6474              2.2446        
  Force const [mDyne/A]         0.0704              1.0918              1.5727        
  Turning point v=0 [a0]        0.5803              0.2625              0.2218        
  RMS dev v=0 [a0 u^1/2]        0.4244              0.2382              0.2350        
  Char temp [K]                480.8616           1525.9005           1568.9690       
  ----------------------------------------------------------------------------------
      1   H               -0.00 -0.00  0.88    0.60  0.06 -0.00   -0.55  0.05  0.00   
      2   O               -0.00 -0.00 -0.06   -0.15  0.05  0.00   -0.18  0.04  0.00   
      3   C                0.00  0.00  0.00    0.11 -0.11 -0.00    0.26 -0.01  0.00   
      4   H                0.00  0.00  0.29    0.64 -0.11  0.00   -0.34  0.00 -0.00   
      5   H                0.03  0.23 -0.10   -0.09  0.28 -0.04    0.35 -0.34  0.05   
      6   H               -0.03 -0.23 -0.10   -0.09  0.28  0.04    0.35 -0.34 -0.05   

  Vibration                       10                  11                  12          
  Freq [cm^-1]                1155.2392           1377.4901           1465.7572       
  Irrep                          App                  Ap                 App          
  Reduced mass [u]              1.2805              1.2842              1.0448        
  Force const [mDyne/A]         1.0069              1.4357              1.3226        
  Turning point v=0 [a0]        0.2853              0.2609              0.2804        
  RMS dev v=0 [a0 u^1/2]        0.2283              0.2091              0.2027        
  Char temp [K]               1662.1294           1981.8985           2108.8950       
  ----------------------------------------------------------------------------------
      1   H                0.00 -0.00 -0.01    0.82 -0.05 -0.00    0.00  0.00 -0.01   
      2   O                0.00 -0.00 -0.06   -0.05 -0.07  0.00   -0.00  0.00 -0.01   
      3   C                0.00  0.00  0.14    0.02  0.13  0.00   -0.00  0.00 -0.06   
      4   H                0.00  0.00 -0.29   -0.35  0.13 -0.00    0.00  0.00  0.72   
      5   H                0.63 -0.14 -0.19    0.01 -0.25  0.14    0.15 -0.46  0.06   
      6   H               -0.63  0.14 -0.19    0.01 -0.25 -0.14   -0.15  0.46  0.06   

  Vibration                       13                  14                  15          
  Freq [cm^-1]                1467.2607           1485.1321           2965.0122       
  Irrep                           Ap                  Ap                  Ap          
  Reduced mass [u]              1.1281              1.0556              1.0385        
  Force const [mDyne/A]         1.4309              1.3718              5.3789        
  Turning point v=0 [a0]        0.2697              0.2771              0.1977        
  RMS dev v=0 [a0 u^1/2]        0.2026              0.2013              0.1425        
  Char temp [K]               2111.0582           2136.7711           4265.9859       
  ----------------------------------------------------------------------------------
      1   H               -0.03  0.01  0.00    0.17 -0.01  0.00   -0.00  0.00  0.00   
      2   O               -0.01  0.01  0.00   -0.02 -0.02 -0.00   -0.00  0.00  0.00   
      3   C               -0.09  0.05  0.00   -0.06 -0.01  0.00   -0.05 -0.01 -0.00   
      4   H                0.70  0.03 -0.00   -0.21  0.01 -0.00   -0.01 -0.25  0.00   
      5   H                0.26 -0.42 -0.03    0.50  0.22 -0.40    0.33  0.21  0.56   
      6   H                0.26 -0.42  0.03    0.50  0.22  0.40    0.33  0.21 -0.56   

  Vibration                       16                  17                  18          
  Freq [cm^-1]                3008.9699           3102.0836           3780.6960       
  Irrep                          App                  Ap                  Ap          
  Reduced mass [u]              1.1049              1.0960              1.0664        
  Force const [mDyne/A]         5.8941              6.2137              8.9811        
  Turning point v=0 [a0]        0.1903              0.1882              0.1728        
  RMS dev v=0 [a0 u^1/2]        0.1414              0.1393              0.1262        
  Char temp [K]               4329.2311           4463.2008           5439.5715       
  ----------------------------------------------------------------------------------
      1   H               -0.00 -0.00  0.01   -0.01 -0.02  0.00   -0.01  1.00 -0.00   
      2   O               -0.00 -0.00  0.00    0.00  0.00 -0.00    0.00 -0.06  0.00   
      3   C               -0.00 -0.00 -0.09   -0.01 -0.09  0.00   -0.00 -0.00 -0.00   
      4   H               -0.00  0.00 -0.03    0.02  0.97  0.00    0.00  0.02 -0.00   
      5   H                0.35  0.23  0.57    0.07  0.04  0.14   -0.00  0.00  0.00   
      6   H               -0.35 -0.23  0.57    0.07  0.04 -0.14   -0.00  0.00 -0.00   

  ==> Thermochemistry Components <==

  Entropy, S
    Electronic S            0.000 [cal/(mol K)]        0.000 [J/(mol K)]       0.00000000 [mEh/K] (multiplicity = 1)
    Translational S        36.324 [cal/(mol K)]      151.980 [J/(mol K)]       0.05788607 [mEh/K] (mol. weight = 32.0262 [u], P = 101325.00 [Pa])
    Rotational S           19.004 [cal/(mol K)]       79.513 [J/(mol K)]       0.03028478 [mEh/K] (symmetry no. = 1)
    Vibrational S           1.487 [cal/(mol K)]        6.221 [J/(mol K)]       0.00236940 [mEh/K]
  Total S                  56.815 [cal/(mol K)]      237.713 [J/(mol K)]       0.09054024 [mEh/K]
  Correction S              0.000 [cal/(mol K)]        0.000 [J/(mol K)]       0.00000000 [mEh/K]

  Constant volume heat capacity, Cv
    Electronic Cv           0.000 [cal/(mol K)]        0.000 [J/(mol K)]       0.00000000 [mEh/K]
    Translational Cv        2.981 [cal/(mol K)]       12.472 [J/(mol K)]       0.00475022 [mEh/K]
    Rotational Cv           2.981 [cal/(mol K)]       12.472 [J/(mol K)]       0.00475022 [mEh/K]
    Vibrational Cv          2.809 [cal/(mol K)]       11.753 [J/(mol K)]       0.00447633 [mEh/K]
  Total Cv                  8.771 [cal/(mol K)]       36.696 [J/(mol K)]       0.01397678 [mEh/K]
  Correction Cv             0.000 [cal/(mol K)]        0.000 [J/(mol K)]       0.00000000 [mEh/K]

  Constant pressure heat capacity, Cp
    Electronic Cp           0.000 [cal/(mol K)]        0.000 [J/(mol K)]       0.00000000 [mEh/K]
    Translational Cp        4.968 [cal/(mol K)]       20.786 [J/(mol K)]       0.00791704 [mEh/K]
    Rotational Cp           2.981 [cal/(mol K)]       12.472 [J/(mol K)]       0.00475022 [mEh/K]
    Vibrational Cp          2.809 [cal/(mol K)]       11.753 [J/(mol K)]       0.00447633 [mEh/K]
  Total Cp                 10.758 [cal/(mol K)]       45.011 [J/(mol K)]       0.01714359 [mEh/K]
  Correction Cp             0.000 [cal/(mol K)]        0.000 [J/(mol K)]       0.00000000 [mEh/K]

  ==> Thermochemistry Energy Analysis <==

  Raw electronic energy, E0
  Total E0, Electronic energy at well bottom at 0 [K]                 -115.72281566 [Eh]

  Zero-point energy, ZPE_vib = Sum_i nu_i / 2
    Electronic ZPE          0.000 [kcal/mol]        0.000 [kJ/mol]       0.00000000 [Eh]
    Translational ZPE       0.000 [kcal/mol]        0.000 [kJ/mol]       0.00000000 [Eh]
    Rotational ZPE          0.000 [kcal/mol]        0.000 [kJ/mol]       0.00000000 [Eh]
    Vibrational ZPE        31.869 [kcal/mol]      133.341 [kJ/mol]       0.05078696 [Eh]       11146.447 [cm^-1]
  Correction ZPE           31.869 [kcal/mol]      133.341 [kJ/mol]       0.05078696 [Eh]       11146.447 [cm^-1]
  Total ZPE, Electronic energy at 0 [K]                               -115.67202870 [Eh]

  Thermal Energy, E (includes ZPE)
    Electronic E            0.000 [kcal/mol]        0.000 [kJ/mol]       0.00000000 [Eh]
    Translational E         0.889 [kcal/mol]        3.718 [kJ/mol]       0.00141628 [Eh]
    Rotational E            0.889 [kcal/mol]        3.718 [kJ/mol]       0.00141628 [Eh]
    Vibrational E          32.170 [kcal/mol]      134.598 [kJ/mol]       0.05126578 [Eh]
  Correction E             33.947 [kcal/mol]      142.035 [kJ/mol]       0.05409834 [Eh]
  Total E, Electronic energy at  298.15 [K]                           -115.66871732 [Eh]

  Enthalpy, H_trans = E_trans + k_B * T
    Electronic H            0.000 [kcal/mol]        0.000 [kJ/mol]       0.00000000 [Eh]
    Translational H         1.481 [kcal/mol]        6.197 [kJ/mol]       0.00236046 [Eh]
    Rotational H            0.889 [kcal/mol]        3.718 [kJ/mol]       0.00141628 [Eh]
    Vibrational H          32.170 [kcal/mol]      134.598 [kJ/mol]       0.05126578 [Eh]
  Correction H             34.540 [kcal/mol]      144.514 [kJ/mol]       0.05504253 [Eh]
  Total H, Enthalpy at  298.15 [K]                                    -115.66777313 [Eh]

  Gibbs free energy, G = H - T * S
    Electronic G            0.000 [kcal/mol]        0.000 [kJ/mol]       0.00000000 [Eh]
    Translational G        -9.349 [kcal/mol]      -39.115 [kJ/mol]      -0.01489827 [Eh]
    Rotational G           -4.777 [kcal/mol]      -19.988 [kJ/mol]      -0.00761313 [Eh]
    Vibrational G          31.726 [kcal/mol]      132.744 [kJ/mol]       0.05055935 [Eh]
  Correction G             17.600 [kcal/mol]       73.640 [kJ/mol]       0.02804795 [Eh]
  Total G, Free enthalpy at  298.15 [K]                               -115.69476770 [Eh]
  ## Total Gradient (Symmetry 0) ##
  Irrep: 1 Size: 6 x 3

                 1                   2                   3

    1    -0.00002349905059     0.00001255386712     0.00000000000000
    2     0.00006070871415     0.00001485499035     0.00000000000000
    3    -0.00007156424868    -0.00004710149140     0.00000000000000
    4     0.00001991491615     0.00001031957238     0.00000000000000
    5     0.00000894336370     0.00000602586422    -0.00000100065958
    6     0.00000894336370     0.00000602586422     0.00000100065958



  ## Hessian (Symmetry 0) ##
  Irrep: 1 Size: 18 x 18

                 1                   2                   3                   4                   5

    1     0.05578703088861    -0.00873186448798     0.00000000000000    -0.04239413669800    -0.04157346730232
    2    -0.00873186448798     0.51336859539324     0.00000000000000     0.01551186959356    -0.50381224257139
    3     0.00000000000000     0.00000000000000     0.00315718324940     0.00000000000000     0.00000000000000
    4    -0.04239413669800     0.01551186959356     0.00000000000000     0.35012872912679    -0.06342145670710
    5    -0.04157346730232    -0.50381224257139     0.00000000000000    -0.06342145670710     0.60845383885858
    6     0.00000000000000     0.00000000000000    -0.00324701653230     0.00000000000000     0.00000000000000
    7    -0.00892948323366    -0.00746954211102     0.00000000000000    -0.23305241065827     0.06835473884813
    8     0.04834203373267    -0.01421712440056     0.00000000000000     0.01979876167014    -0.10744112104366
    9     0.00000000000000     0.00000000000000    -0.00163273508009     0.00000000000000     0.00000000000000
   10    -0.00674651845546     0.00421977911517     0.00000000000000    -0.00753348377629     0.04238767682748
   11     0.00199050055914     0.00190063337627     0.00000000000000     0.00719930097176    -0.01066595124076
   12     0.00000000000000     0.00000000000000     0.00063781870666     0.00000000000000     0.00000000000000
   13     0.00114155374925    -0.00176512105486     0.00040287536132    -0.03357434899711    -0.00287374583310
   14    -0.00001360125075     0.00138006910122     0.00148995180677     0.01045576223582     0.00673273799861
   15    -0.00071036585814     0.00037293630549     0.00054237482816    -0.00373926893572     0.00459117383498
   16     0.00114155374925    -0.00176512105486    -0.00040287536132    -0.03357434899711    -0.00287374583310
   17    -0.00001360125075     0.00138006910122    -0.00148995180677     0.01045576223582     0.00673273799861
   18     0.00071036585814    -0.00037293630549     0.00054237482816     0.00373926893572    -0.00459117383498

                 6                   7                   8                   9                  10

    1     0.00000000000000    -0.00892948323366     0.04834203373267     0.00000000000000    -0.00674651845546
    2     0.00000000000000    -0.00746954211102    -0.01421712440056     0.00000000000000     0.00421977911517
    3    -0.00324701653230     0.00000000000000     0.00000000000000    -0.00163273508009     0.00000000000000
    4     0.00000000000000    -0.23305241065827     0.01979876167014     0.00000000000000    -0.00753348377629
    5     0.00000000000000     0.06835473884813    -0.10744112104366     0.00000000000000     0.04238767682748
    6     0.04474615106159     0.00000000000000     0.00000000000000    -0.06018808361011     0.00000000000000
    7     0.00000000000000     0.48254212128826     0.02437784863681     0.00000000000000    -0.04737082507202
    8     0.00000000000000     0.02437784863681     0.59053941942623     0.00000000000000    -0.02444624601200
    9    -0.06018808361011     0.00000000000000     0.00000000000000     0.54190834172151     0.00000000000000
   10     0.00000000000000    -0.04737082507202    -0.02444624601200     0.00000000000000     0.06006172629192
   11     0.00000000000000    -0.01065059851498    -0.31343996453068     0.00000000000000     0.00504652014994
   12     0.00149172476698     0.00000000000000     0.00000000000000    -0.04799452276290     0.00000000000000
   13    -0.02585056880189    -0.09659470116215    -0.03403619901381    -0.08818859349498     0.00079455050592
   14     0.01038465572941    -0.03730622342947    -0.07772060472566    -0.06607556615715    -0.01360386504030
   15     0.00859861215692    -0.09076372791340    -0.06609789448305    -0.21604650013420     0.00115211964716
   16     0.02585056880189    -0.09659470116215    -0.03403619901381     0.08818859349498     0.00079455050592
   17    -0.01038465572941    -0.03730622342947    -0.07772060472566     0.06607556615715    -0.01360386504030
   18     0.00859861215692     0.09076372791340     0.06609789448305    -0.21604650013420    -0.00115211964716

                11                  12                  13                  14                  15

    1     0.00199050055914     0.00000000000000     0.00114155374925    -0.00001360125075    -0.00071036585814
    2     0.00190063337627     0.00000000000000    -0.00176512105486     0.00138006910122     0.00037293630549
    3     0.00000000000000     0.00063781870666     0.00040287536132     0.00148995180677     0.00054237482816
    4     0.00719930097176     0.00000000000000    -0.03357434899711     0.01045576223582    -0.00373926893572
    5    -0.01066595124076     0.00000000000000    -0.00287374583310     0.00673273799861     0.00459117383498
    6     0.00000000000000     0.00149172476698    -0.02585056880189     0.01038465572941     0.00859861215692
    7    -0.01065059851498     0.00000000000000    -0.09659470116215    -0.03730622342947    -0.09076372791340
    8    -0.31343996453068     0.00000000000000    -0.03403619901381    -0.07772060472566    -0.06609789448305
    9     0.00000000000000    -0.04799452276290    -0.08818859349498    -0.06607556615715    -0.21604650013420
   10     0.00504652014994     0.00000000000000     0.00079455050592    -0.01360386504030     0.00115211964716
   11     0.33900615195415     0.00000000000000    -0.00179286158293    -0.00840043477949     0.00033440896577
   12     0.00000000000000     0.04480473498363    -0.00151459751499    -0.02643680425580     0.00053012215281
   13    -0.00179286158293    -0.00151459751499     0.11922816602495     0.03663071561583     0.10460606375532
   14    -0.00840043477949    -0.02643680425580     0.03663071561583     0.07376479288838     0.07071856912679
   15     0.00033440896577     0.00053012215281     0.10460606375532     0.07071856912679     0.22785379792442
   16    -0.00179286158293     0.00151459751499     0.00900477987914     0.00383721186887    -0.01054482069522
   17    -0.00840043477949     0.02643680425580     0.00383721186887     0.00424343951694    -0.00991919374998
   18    -0.00033440896577     0.00053012215281     0.01054482069522     0.00991919374998    -0.02147840692811

                16                  17                  18

    1     0.00114155374925    -0.00001360125075     0.00071036585814
    2    -0.00176512105486     0.00138006910122    -0.00037293630549
    3    -0.00040287536132    -0.00148995180677     0.00054237482816
    4    -0.03357434899711     0.01045576223582     0.00373926893572
    5    -0.00287374583310     0.00673273799861    -0.00459117383498
    6     0.02585056880189    -0.01038465572941     0.00859861215692
    7    -0.09659470116215    -0.03730622342947     0.09076372791340
    8    -0.03403619901381    -0.07772060472566     0.06609789448305
    9     0.08818859349498     0.06607556615715    -0.21604650013420
   10     0.00079455050592    -0.01360386504030    -0.00115211964716
   11    -0.00179286158293    -0.00840043477949    -0.00033440896577
   12     0.00151459751499     0.02643680425580     0.00053012215281
   13     0.00900477987914     0.00383721186887     0.01054482069522
   14     0.00383721186887     0.00424343951694     0.00991919374998
   15    -0.01054482069522    -0.00991919374998    -0.02147840692811
   16     0.11922816602495     0.03663071561583    -0.10460606375532
   17     0.03663071561583     0.07376479288838    -0.07071856912679
   18    -0.10460606375532    -0.07071856912679     0.22785379792442




    Psi4 stopped on: Monday, 28 January 2019 07:30PM
    Psi4 wall time for execution: 0:03:27.41

*** Psi4 exiting successfully. Buy a developer a beer!
