
 Primary working directories    : /scratch/kmoore
 Secondary working directories  : /scratch/kmoore
 Wavefunction directory         : /scratch/kmoore/
 Main file repository           : /scratch/kmoore/

 SHA1      : b6b3a4772808bb2d43777f23454e145ddfe12dc3
 NAME      : 2015.1.1
 ARCHNAME  : linux/x86_64
 FC        : /soft/mvapich2/2.2b_psm/intel-15.0/bin/mpif90
 BLASLIB   : -L/soft/intel/15.0.1/composer_xe_2015.0.090/mkl/lib/intel64 -lmkl_intel_ilp64 -lmkl_sequential -lmkl_core
 id        : anlgov

 Nodes     nprocs
 b460         1

 Using customized tuning parameters: mindgm=1; mindgv=20; mindgc=4; mindgr=1; noblas=0; minvec=7
 default implementation of scratch files=df  

 angstrom
 Geometry = {
  O       0.000000    0.000000    0.000000
  O       0.000000    0.000000    1.311565
  H       0.943625    0.000000    1.573176
 }
 
 set,charge=0
 set,spin=1
 
 basis=cc-pVDZ
 
 {rhf}
 {rmp2}

 Variables initialized (889), CPU time= 0.00 sec
 Commands  initialized (702), CPU time= 0.01 sec, 572 directives.
 Default parameters read. Elapsed time= 0.05 sec

 Checking input...
 Passed
1


                                         ***  PROGRAM SYSTEM MOLPRO  ***
                                       Copyright, TTI GmbH Stuttgart, 2015
                                    Version 2015.1 linked Jan  8 2016 07:59:11


 **********************************************************************************************************************************
 LABEL *                                                                                 
  64 bit serial version                                                                  DATE: 27-Jan-19          TIME: 13:18:45  
 **********************************************************************************************************************************

 SHA1:             b6b3a4772808bb2d43777f23454e145ddfe12dc3
 **********************************************************************************************************************************
 ZUNIT=ANG
 

Geometry recognized as XYZ

 SETTING CHARGE         =     0.00000000D+00                                  
 SETTING SPIN           =         1.00000000                                  

 Variable memory set to    8000000 words,  buffer space   230000 words

 SETTING BASIS          =    CC-PVDZ


 Recomputing integrals since basis changed


 Using spherical harmonics

 Library entry O      S cc-pVDZ              selected for orbital group  1
 Library entry O      P cc-pVDZ              selected for orbital group  1
 Library entry O      D cc-pVDZ              selected for orbital group  1
 Library entry H      S cc-pVDZ              selected for orbital group  2
 Library entry H      P cc-pVDZ              selected for orbital group  2

1PROGRAM * SEWARD (Integral evaluation for generally contracted gaussian basis sets)     Author: Roland Lindh, 1990

 Geometry written to block  1 of record 700


 Point group  Cs  



 ATOMIC COORDINATES

 NR  ATOM    CHARGE       X              Y              Z

   1  O       8.00    0.000000000    0.000000000    0.000000000
   2  O       8.00    0.000000000    0.000000000    2.478498645
   3  H       1.00    1.783192814    0.000000000    2.972871786

 Bond lengths in Bohr (Angstrom)

 1-2  2.478498645  2-3  1.850454381
     ( 1.311565000)     ( 0.979218288)

 Bond angles

  1-2-3  105.49552466

 NUCLEAR CHARGE:                   17
 NUMBER OF PRIMITIVE AOS:          61
 NUMBER OF SYMMETRY AOS:           59
 NUMBER OF CONTRACTIONS:           33   (  24A'  +   9A"  )
 NUMBER OF CORE ORBITALS:           2   (   2A'  +   0A"  )
 NUMBER OF VALENCE ORBITALS:        9   (   7A'  +   2A"  )


 NUCLEAR REPULSION ENERGY   32.45304203

 Eigenvalues of metric

         1 0.117E-01 0.307E-01 0.488E-01 0.112E+00 0.147E+00 0.159E+00 0.192E+00 0.205E+00
         2 0.152E+00 0.207E+00 0.581E+00 0.776E+00 0.995E+00 0.110E+01 0.117E+01 0.149E+01


 Contracted 2-electron integrals neglected if value below      1.0D-11
 AO integral compression algorithm  1   Integral accuracy      1.0D-11

     0.524 MB (compressed) written to integral file ( 65.6%)


 NUMBER OF SORTED TWO-ELECTRON INTEGRALS:      86685.     BUFFER LENGTH:  32768
 NUMBER OF SEGMENTS:   1  SEGMENT LENGTH:      86685      RECORD LENGTH: 524288

 Memory used in sort:       0.64 MW

 SORT1 READ      110522. AND WROTE       61409. INTEGRALS IN      1 RECORDS. CPU TIME:     0.00 SEC, REAL TIME:     0.00 SEC
 SORT2 READ       61409. AND WROTE       86685. INTEGRALS IN      2 RECORDS. CPU TIME:     0.01 SEC, REAL TIME:     0.01 SEC

 FILE SIZES:   FILE 1:    19.7 MBYTE,  FILE 4:     4.2 MBYTE,   TOTAL:     23.9 MBYTE

 OPERATOR DM      FOR CENTER  0  COORDINATES:    0.000000    0.000000    0.000000


 **********************************************************************************************************************************
 DATASETS  * FILE   NREC   LENGTH (MB)   RECORD NAMES
              1      19       19.46       500      610      700      900      950      970     1000      129      960     1100   
                                          VAR    BASINP    GEOM    SYMINP    ZMAT    AOBASIS   BASIS     P2S    ABASIS      S 
                                         1400     1410     1200     1210     1080     1600     1650     1300     1700   
                                           T        V       H0       H01     AOSYM     SMH    MOLCAS    ERIS     OPER   

 PROGRAMS   *        TOTAL       INT
 CPU TIMES  *         0.14      0.05
 REAL TIME  *         0.22 SEC
 DISK USED  *        24.18 MB      
 **********************************************************************************************************************************

1PROGRAM * RHF-SCF (OPEN SHELL)       Authors: W. Meyer, H.-J. Werner


 NUMBER OF ELECTRONS:       9+    8-
 CONVERGENCE THRESHOLDS:    1.00E-05 (Density)    1.00E-07 (Energy)
 MAX. NUMBER OF ITERATIONS:       60
 INTERPOLATION TYPE:            DIIS
 INTERPOLATION STEPS:              2 (START)      1 (STEP)
 LEVEL SHIFTS:                 -0.60 (CLOSED) -0.30 (OPEN) 



 Orbital guess generated from atomic densities. Full valence occupancy:    9   2

 Molecular orbital dump at record        2100.2

 Initial alpha occupancy:   7   2
 Initial beta  occupancy:   7   1
 Wave function symmetry:    2

 ITERATION    DDIFF          GRAD             ENERGY        2-EL.EN.            DIPOLE MOMENTS         DIIS   ORB.
    1      0.000D+00      0.000D+00      -150.12201186    176.579191    0.91103    0.00000    1.16560    0    start
    2      0.000D+00      0.176D-01      -150.16170197    177.973401    0.81383    0.00000    0.67404    1    diag,B
    3      0.254D-01      0.710D-02      -150.16906961    177.827951    0.77165    0.00000    0.64668    2    diag,B
    4      0.106D-01      0.263D-02      -150.17405837    177.858688    0.74953    0.00000    0.51537    3    diag,B
    5      0.520D-02      0.212D-02      -150.17749443    177.871977    0.73768    0.00000    0.44278    4    diag,B
    6      0.364D-02      0.155D-02      -150.18103670    177.884509    0.72803    0.00000    0.37027    5    diag,B
    7      0.540D-02      0.795D-03      -150.18190733    177.906155    0.72332    0.00000    0.34845    6    fixocc
    8      0.394D-02      0.208D-03      -150.18192660    177.906831    0.72326    0.00000    0.35168    7    diag,B
    9      0.721D-03      0.963D-04      -150.18192975    177.906895    0.72279    0.00000    0.35226    8    diag,B
   10      0.360D-03      0.496D-04      -150.18193034    177.907292    0.72313    0.00000    0.35338    9    orth
   11      0.164D-03      0.223D-04      -150.18193056    177.907153    0.72300    0.00000    0.35324    9    diag,B
   12      0.777D-04      0.858D-05      -150.18193059    177.907204    0.72301    0.00000    0.35323    9    diag,B
   13      0.218D-04      0.332D-05      -150.18193059    177.907180    0.72301    0.00000    0.35322    9    diag,B
   14      0.955D-05      0.668D-06      -150.18193059    177.907187    0.72301    0.00000    0.35322    0    orth

 Final alpha occupancy:   7   2
 Final beta  occupancy:   7   1

 !RHF STATE 1.2 Energy               -150.181930594595
 Nuclear energy                        32.45304203
 One-electron energy                 -271.58856587
 Two-electron energy                   88.95359325
 Virial quotient                       -0.99981217
 !RHF STATE 1.2 Dipole moment           0.72301096     0.00000000     0.35321887
 Dipole moment /Debye                   1.83759020     0.00000000     0.89773400

 Orbital energies:

         1.1          2.1          3.1          4.1          5.1          6.1          7.1          8.1          9.1
    -20.661304   -20.660378    -1.549607    -1.147952    -0.758489    -0.658350    -0.494604     0.172924     0.366490

         1.2          2.2          3.2          4.2
     -0.622514    -0.574986     1.092588     1.200716

 HOMO      7.1    -0.494604 =     -13.4589eV
 LUMO      8.1     0.172924 =       4.7055eV
 LUMO-HOMO         0.667529 =      18.1644eV


 **********************************************************************************************************************************
 DATASETS  * FILE   NREC   LENGTH (MB)   RECORD NAMES
              1      19       19.46       500      610      700      900      950      970     1000      129      960     1100   
                                          VAR    BASINP    GEOM    SYMINP    ZMAT    AOBASIS   BASIS     P2S    ABASIS      S 
                                         1400     1410     1200     1210     1080     1600     1650     1300     1700   
                                           T        V       H0       H01     AOSYM     SMH    MOLCAS    ERIS     OPER   

              2       4        0.42       700     1000      520     2100   
                                         GEOM     BASIS   MCVARS     RHF  

 PROGRAMS   *        TOTAL       RHF       INT
 CPU TIMES  *         0.16      0.02      0.05
 REAL TIME  *         0.24 SEC
 DISK USED  *        24.18 MB      
 **********************************************************************************************************************************


1PROGRAM * RMP2 (Restricted open-shell)     Authors: H.-J. Werner, 2001


 Convergence thresholds:  THRVAR = 1.00D-08  THRDEN = 1.00D-06

 Number of core orbitals:           2 (   2   0 )
 Number of closed-shell orbitals:   6 (   5   1 )
 Number of active  orbitals:        1 (   0   1 )
 Number of external orbitals:      24 (  17   7 )

 Reading UHF information from record   2100.2

                               TOTAL       A-A         B-B         A-B
 Pair energies:            -0.34467711 -0.04775557 -0.04305503 -0.25386651
 Singles energies:         -0.00376966 -0.00188287 -0.00188680

 Reference energy                    -150.181930594595
 Correlation energy                    -0.348446778912
 !RMP2 STATE 1.2 Energy              -150.530377373507


 **********************************************************************************************************************************
 DATASETS  * FILE   NREC   LENGTH (MB)   RECORD NAMES
              1      19       19.46       500      610      700      900      950      970     1000      129      960     1100   
                                          VAR    BASINP    GEOM    SYMINP    ZMAT    AOBASIS   BASIS     P2S    ABASIS      S 
                                         1400     1410     1200     1210     1080     1600     1650     1300     1700   
                                           T        V       H0       H01     AOSYM     SMH    MOLCAS    ERIS     OPER   

              2       4        0.42       700     1000      520     2100   
                                         GEOM     BASIS   MCVARS     RHF  

 PROGRAMS   *        TOTAL      RMP2       RHF       INT
 CPU TIMES  *         0.19      0.03      0.02      0.05
 REAL TIME  *         0.29 SEC
 DISK USED  *        24.18 MB      
 **********************************************************************************************************************************

 RMP2/cc-pVDZ energy=   -150.530377373507

        RMP2            RHF-SCF 
   -150.53037737   -150.18193059
 **********************************************************************************************************************************
 Variable memory released
