 Entering Gaussian System, Link 0=g09
 Initial command:
 /soft/gaussian/09-e.01/g09/l1.exe "/scratch/kmoore/Gau-111000.inp" -scrdir="/scratch/kmoore"
 Entering Link 1 = /soft/gaussian/09-e.01/g09/l1.exe PID=    111001.
  
 Copyright (c) 1988,1990,1992,1993,1995,1998,2003,2009,2015,
            Gaussian, Inc.  All Rights Reserved.
  
 This is part of the Gaussian(R) 09 program.  It is based on
 the Gaussian(R) 03 system (copyright 2003, Gaussian, Inc.),
 the Gaussian(R) 98 system (copyright 1998, Gaussian, Inc.),
 the Gaussian(R) 94 system (copyright 1995, Gaussian, Inc.),
 the Gaussian 92(TM) system (copyright 1992, Gaussian, Inc.),
 the Gaussian 90(TM) system (copyright 1990, Gaussian, Inc.),
 the Gaussian 88(TM) system (copyright 1988, Gaussian, Inc.),
 the Gaussian 86(TM) system (copyright 1986, Carnegie Mellon
 University), and the Gaussian 82(TM) system (copyright 1983,
 Carnegie Mellon University). Gaussian is a federally registered
 trademark of Gaussian, Inc.
  
 This software contains proprietary and confidential information,
 including trade secrets, belonging to Gaussian, Inc.
  
 This software is provided under written license and may be
 used, copied, transmitted, or stored only in accord with that
 written license.
  
 The following legend is applicable only to US Government
 contracts under FAR:
  
                    RESTRICTED RIGHTS LEGEND
  
 Use, reproduction and disclosure by the US Government is
 subject to restrictions as set forth in subparagraphs (a)
 and (c) of the Commercial Computer Software - Restricted
 Rights clause in FAR 52.227-19.
  
 Gaussian, Inc.
 340 Quinnipiac St., Bldg. 40, Wallingford CT 06492
  
  
 ---------------------------------------------------------------
 Warning -- This program may not be used in any manner that
 competes with the business of Gaussian, Inc. or will provide
 assistance to any competitor of Gaussian, Inc.  The licensee
 of this program is prohibited from giving any competitor of
 Gaussian, Inc. access to this program.  By using this program,
 the user acknowledges that Gaussian, Inc. is engaged in the
 business of creating and licensing software in the field of
 computational chemistry and represents and warrants to the
 licensee that it is not a competitor of Gaussian, Inc. and that
 it will not use this program in any manner prohibited above.
 ---------------------------------------------------------------
  

 Cite this work as:
 Gaussian 09, Revision E.01,
 M. J. Frisch, G. W. Trucks, H. B. Schlegel, G. E. Scuseria, 
 M. A. Robb, J. R. Cheeseman, G. Scalmani, V. Barone, B. Mennucci, 
 G. A. Petersson, H. Nakatsuji, M. Caricato, X. Li, H. P. Hratchian, 
 A. F. Izmaylov, J. Bloino, G. Zheng, J. L. Sonnenberg, M. Hada, 
 M. Ehara, K. Toyota, R. Fukuda, J. Hasegawa, M. Ishida, T. Nakajima, 
 Y. Honda, O. Kitao, H. Nakai, T. Vreven, J. A. Montgomery, Jr., 
 J. E. Peralta, F. Ogliaro, M. Bearpark, J. J. Heyd, E. Brothers, 
 K. N. Kudin, V. N. Staroverov, T. Keith, R. Kobayashi, J. Normand, 
 K. Raghavachari, A. Rendell, J. C. Burant, S. S. Iyengar, J. Tomasi, 
 M. Cossi, N. Rega, J. M. Millam, M. Klene, J. E. Knox, J. B. Cross, 
 V. Bakken, C. Adamo, J. Jaramillo, R. Gomperts, R. E. Stratmann, 
 O. Yazyev, A. J. Austin, R. Cammi, C. Pomelli, J. W. Ochterski, 
 R. L. Martin, K. Morokuma, V. G. Zakrzewski, G. A. Voth, 
 P. Salvador, J. J. Dannenberg, S. Dapprich, A. D. Daniels, 
 O. Farkas, J. B. Foresman, J. V. Ortiz, J. Cioslowski, 
 and D. J. Fox, Gaussian, Inc., Wallingford CT, 2013.
 
 ******************************************
 Gaussian 09:  ES64L-G09RevE.01 30-Nov-2015
                27-Jan-2019 
 ******************************************
 %mem=30gb
 %nproc=1
 Will use up to    1 processors via shared memory.
 ------------------
 # UHF CCSD/cc-pVDZ
 ------------------
 1/38=1/1;
 2/12=2,17=6,18=5,40=1/2;
 3/5=16,11=2,16=1,25=1,30=1,116=2/1,2,3;
 4//1;
 5/5=2,38=5/2;
 8/6=4,9=120000,10=1/1,4;
 9/5=7/13;
 6/7=2,8=2,9=2,10=2/1;
 99/5=1,9=1/99;
 ------------
 Single Point
 ------------
 Symbolic Z-matrix:
 Charge =  0 Multiplicity = 2
 O                     0.        0.        0. 
 O                     0.        0.        1.31157 
 H                     0.94363   0.        1.57318 
 
                          Input orientation:                          
 ---------------------------------------------------------------------
 Center     Atomic      Atomic             Coordinates (Angstroms)
 Number     Number       Type             X           Y           Z
 ---------------------------------------------------------------------
      1          8           0        0.000000    0.000000    0.000000
      2          8           0        0.000000    0.000000    1.311565
      3          1           0        0.943625    0.000000    1.573176
 ---------------------------------------------------------------------
                    Distance matrix (angstroms):
                    1          2          3
     1  O    0.000000
     2  O    1.311565   0.000000
     3  H    1.834478   0.979218   0.000000
 Stoichiometry    HO2(2)
 Framework group  CS[SG(HO2)]
 Deg. of freedom     3
 Full point group                 CS      NOp   2
 Largest Abelian subgroup         CS      NOp   2
 Largest concise Abelian subgroup C1      NOp   1
                         Standard orientation:                         
 ---------------------------------------------------------------------
 Center     Atomic      Atomic             Coordinates (Angstroms)
 Number     Number       Type             X           Y           Z
 ---------------------------------------------------------------------
      1          8           0        0.055507    0.709747   -0.000000
      2          8           0        0.055507   -0.601818    0.000000
      3          1           0       -0.888118   -0.863429    0.000000
 ---------------------------------------------------------------------
 Rotational constants (GHZ):    617.8204555     34.5404242     32.7116191
 Standard basis: CC-pVDZ (5D, 7F)
 There are    26 symmetry adapted cartesian basis functions of A'  symmetry.
 There are     9 symmetry adapted cartesian basis functions of A"  symmetry.
 There are    24 symmetry adapted basis functions of A'  symmetry.
 There are     9 symmetry adapted basis functions of A"  symmetry.
    33 basis functions,    73 primitive gaussians,    35 cartesian basis functions
     9 alpha electrons        8 beta electrons
       nuclear repulsion energy        32.4530418823 Hartrees.
 NAtoms=    3 NActive=    3 NUniq=    3 SFac= 1.00D+00 NAtFMM=   60 NAOKFM=F Big=F
 Integral buffers will be    131072 words long.
 Raffenetti 2 integral format.
 Two-electron integral symmetry is turned on.
 One-electron integrals computed using PRISM.
 NBasis=    33 RedAO= T EigKep=  3.14D-02  NBF=    24     9
 NBsUse=    33 1.00D-06 EigRej= -1.00D+00 NBFU=    24     9
 ExpMin= 1.22D-01 ExpMax= 1.17D+04 ExpMxC= 4.01D+02 IAcc=1 IRadAn=         1 AccDes= 0.00D+00
 Harris functional with IExCor=  205 and IRadAn=       1 diagonalized for initial guess.
 HarFok:  IExCor=  205 AccDes= 0.00D+00 IRadAn=         1 IDoV= 1 UseB2=F ITyADJ=14
 ICtDFT=  3500011 ScaDFX=  1.000000  1.000000  1.000000  1.000000
 FoFCou: FMM=F IPFlag=           0 FMFlag=      100000 FMFlg1=           0
         NFxFlg=           0 DoJE=T BraDBF=F KetDBF=T FulRan=T
         wScrn=  0.000000 ICntrl=     500 IOpCl=  0 I1Cent=   200000004 NGrid=           0
         NMat0=    1 NMatS0=      1 NMatT0=    0 NMatD0=    1 NMtDS0=    0 NMtDT0=    0
 Petite list used in FoFCou.
 Initial guess orbital symmetries:
 Alpha Orbitals:
       Occupied  (A') (A') (A') (A') (A') (A') (A") (A') (A")
       Virtual   (A') (A') (A') (A') (A") (A') (A') (A") (A') (A')
                 (A") (A') (A') (A') (A") (A') (A") (A') (A') (A")
                 (A") (A') (A') (A')
 Beta  Orbitals:
       Occupied  (A') (A') (A') (A') (A') (A') (A") (A')
       Virtual   (A") (A') (A') (A') (A') (A") (A') (A') (A") (A')
                 (A') (A") (A') (A') (A') (A") (A') (A") (A') (A')
                 (A") (A") (A') (A') (A')
 The electronic state of the initial guess is 2-A".
 Initial guess <Sx>= 0.0000 <Sy>= 0.0000 <Sz>= 0.5000 <S**2>= 0.7500 S= 0.5000
 Keep R1 and R2 ints in memory in symmetry-blocked form, NReq=1029083.
 Requested convergence on RMS density matrix=1.00D-08 within 128 cycles.
 Requested convergence on MAX density matrix=1.00D-06.
 Requested convergence on             energy=1.00D-06.
 No special actions if energy rises.
 SCF Done:  E(UHF) =  -150.187604854     A.U. after   17 cycles
            NFock= 17  Conv=0.88D-08     -V/T= 1.9998
 <Sx>= 0.0000 <Sy>= 0.0000 <Sz>= 0.5000 <S**2>= 0.7588 S= 0.5044
 <L.S>= 0.000000000000E+00
 Annihilation of the first spin contaminant:
 S**2 before annihilation     0.7588,   after     0.7501
 ExpMin= 1.22D-01 ExpMax= 1.17D+04 ExpMxC= 4.01D+02 IAcc=3 IRadAn=         5 AccDes= 0.00D+00
 HarFok:  IExCor=  205 AccDes= 0.00D+00 IRadAn=         5 IDoV=-2 UseB2=F ITyADJ=14
 ICtDFT= 12500011 ScaDFX=  1.000000  1.000000  1.000000  1.000000
 Range of M.O.s used for correlation:     3    33
 NBasis=    33 NAE=     9 NBE=     8 NFC=     2 NFV=     0
 NROrb=     31 NOA=     7 NOB=     6 NVA=    24 NVB=    25
 Semi-Direct transformation.
 ModeAB=           2 MOrb=             7 LenV=    4026342674
 LASXX=        43133 LTotXX=       43133 LenRXX=       43133
 LTotAB=       50508 MaxLAS=      136710 LenRXY=      136710
 NonZer=      146475 LenScr=      785920 LnRSAI=           0
 LnScr1=           0 LExtra=           0 Total=       965763
 MaxDsk=          -1 SrtSym=           F ITran=            4
 JobTyp=1 Pass  1:  I=   1 to   7.
 (rs|ai) integrals will be sorted in core.
 ModeAB=           2 MOrb=             6 LenV=    4026342674
 LASXX=        38507 LTotXX=       38507 LenRXX=      117180
 LTotAB=       27107 MaxLAS=      117180 LenRXY=       27107
 NonZer=      125550 LenScr=      785920 LnRSAI=           0
 LnScr1=           0 LExtra=           0 Total=       930207
 MaxDsk=          -1 SrtSym=           F ITran=            4
 JobTyp=2 Pass  1:  I=   1 to   6.
 (rs|ai) integrals will be sorted in core.
 Spin components of T(2) and E(2):
     alpha-alpha T2 =       0.1131223643D-01 E2=     -0.4740031157D-01
     alpha-beta  T2 =       0.6476302333D-01 E2=     -0.2520343660D+00
     beta-beta   T2 =       0.1231777715D-01 E2=     -0.4298678306D-01
 ANorm=    0.1043260771D+01
 E2 =    -0.3424214607D+00 EUMP2 =    -0.15053002631508D+03
 (S**2,0)=  0.75882D+00           (S**2,1)=  0.75120D+00
 E(PUHF)=      -0.15019156478D+03        E(PMP2)=      -0.15053228253D+03
 Keep R2 and R3 ints in memory in symmetry-blocked form, NReq=989067.
 Iterations=  50 Convergence= 0.100D-06
 Iteration Nr.   1
 **********************
 DD1Dir will call FoFMem   1 times, MxPair=       120
 NAB=    42 NAA=    21 NBB=    15.
 E(PMP3)=      -0.15054057740D+03
 MP4(R+Q)=  0.47256756D-02
 E3=       -0.93274886D-02        EUMP3=      -0.15053935380D+03
 E4(DQ)=   -0.25258517D-02        UMP4(DQ)=   -0.15054187966D+03
 E4(SDQ)=  -0.75331167D-02        UMP4(SDQ)=  -0.15054688692D+03
 DE(Corr)= -0.34705966     E(Corr)=     -150.53466452    
 NORM(A)=   0.10464083D+01
 Iteration Nr.   2
 **********************
 DD1Dir will call FoFMem   1 times, MxPair=       120
 NAB=    42 NAA=    21 NBB=    15.
 DE(Corr)= -0.35713052     E(CORR)=     -150.54473537     Delta=-1.01D-02
 NORM(A)=   0.10525841D+01
 Iteration Nr.   3
 **********************
 DD1Dir will call FoFMem   1 times, MxPair=       120
 NAB=    42 NAA=    21 NBB=    15.
 DE(Corr)= -0.35895787     E(CORR)=     -150.54656272     Delta=-1.83D-03
 NORM(A)=   0.10578385D+01
 Iteration Nr.   4
 **********************
 DD1Dir will call FoFMem   1 times, MxPair=       120
 NAB=    42 NAA=    21 NBB=    15.
 DE(Corr)= -0.36120442     E(CORR)=     -150.54880928     Delta=-2.25D-03
 NORM(A)=   0.10613628D+01
 Iteration Nr.   5
 **********************
 DD1Dir will call FoFMem   1 times, MxPair=       120
 NAB=    42 NAA=    21 NBB=    15.
 DE(Corr)= -0.36185408     E(CORR)=     -150.54945893     Delta=-6.50D-04
 NORM(A)=   0.10626113D+01
 Iteration Nr.   6
 **********************
 DD1Dir will call FoFMem   1 times, MxPair=       120
 NAB=    42 NAA=    21 NBB=    15.
 DE(Corr)= -0.36199591     E(CORR)=     -150.54960076     Delta=-1.42D-04
 NORM(A)=   0.10626892D+01
 Iteration Nr.   7
 **********************
 DD1Dir will call FoFMem   1 times, MxPair=       120
 NAB=    42 NAA=    21 NBB=    15.
 DE(Corr)= -0.36199652     E(CORR)=     -150.54960137     Delta=-6.11D-07
 NORM(A)=   0.10627329D+01
 Iteration Nr.   8
 **********************
 DD1Dir will call FoFMem   1 times, MxPair=       120
 NAB=    42 NAA=    21 NBB=    15.
 DE(Corr)= -0.36199489     E(CORR)=     -150.54959975     Delta= 1.62D-06
 NORM(A)=   0.10627408D+01
 Iteration Nr.   9
 **********************
 DD1Dir will call FoFMem   1 times, MxPair=       120
 NAB=    42 NAA=    21 NBB=    15.
 DE(Corr)= -0.36200020     E(CORR)=     -150.54960505     Delta=-5.31D-06
 NORM(A)=   0.10627406D+01
 Iteration Nr.  10
 **********************
 DD1Dir will call FoFMem   1 times, MxPair=       120
 NAB=    42 NAA=    21 NBB=    15.
 DE(Corr)= -0.36199899     E(CORR)=     -150.54960384     Delta= 1.21D-06
 NORM(A)=   0.10627416D+01
 Iteration Nr.  11
 **********************
 DD1Dir will call FoFMem   1 times, MxPair=       120
 NAB=    42 NAA=    21 NBB=    15.
 DE(Corr)= -0.36199976     E(CORR)=     -150.54960461     Delta=-7.69D-07
 NORM(A)=   0.10627419D+01
 Iteration Nr.  12
 **********************
 DD1Dir will call FoFMem   1 times, MxPair=       120
 NAB=    42 NAA=    21 NBB=    15.
 DE(Corr)= -0.36199961     E(CORR)=     -150.54960446     Delta= 1.50D-07
 NORM(A)=   0.10627429D+01
 Iteration Nr.  13
 **********************
 DD1Dir will call FoFMem   1 times, MxPair=       120
 NAB=    42 NAA=    21 NBB=    15.
 DE(Corr)= -0.36199976     E(CORR)=     -150.54960462     Delta=-1.56D-07
 NORM(A)=   0.10627435D+01
 Iteration Nr.  14
 **********************
 DD1Dir will call FoFMem   1 times, MxPair=       120
 NAB=    42 NAA=    21 NBB=    15.
 DE(Corr)= -0.36199988     E(CORR)=     -150.54960474     Delta=-1.22D-07
 NORM(A)=   0.10627440D+01
 Iteration Nr.  15
 **********************
 DD1Dir will call FoFMem   1 times, MxPair=       120
 NAB=    42 NAA=    21 NBB=    15.
 DE(Corr)= -0.36199996     E(CORR)=     -150.54960481     Delta=-7.24D-08
 NORM(A)=   0.10627442D+01
 Dominant configurations:
 ***********************
 Spin Case        I    J    A    B          Value
    BB            7         9            0.148509D+00
 Largest amplitude= 1.49D-01

 S**2, projected HF & approx projected MPn energies after annihilation of
 unwanted spin states (see manual for definitions):

 spins       (S**2,0) (S**2,1)    PUHF        PMP2        PMP3        PMP4
 annihilated
 s+1         0.74997  0.75002 -150.191565 -150.532282 -150.540577
 s+1,s+2     0.75000  0.75000 -150.191553 -150.532272 -150.540568
 s+1 to s+3  0.75000  0.75000 -150.191553 -150.532272 -150.540568
 s+1 to s+4  0.75000  0.75000 -150.191553 -150.532272 -150.540568
 s+1 to s+5  0.75000  0.75000 -150.191553
 s+1 to s+6  0.75000  0.75000 -150.191553

 Discarding MO integrals.

 **********************************************************************

            Population analysis using the SCF density.

 **********************************************************************

 Orbital symmetries:
 Alpha Orbitals:
       Occupied  (A') (A') (A') (A') (A') (A") (A') (A") (A')
       Virtual   (A') (A') (A') (A") (A') (A') (A') (A") (A') (A")
                 (A') (A') (A') (A') (A") (A') (A") (A') (A') (A")
                 (A") (A') (A') (A')
 Beta  Orbitals:
       Occupied  (A') (A') (A') (A') (A') (A') (A") (A')
       Virtual   (A") (A') (A') (A') (A') (A') (A') (A") (A') (A")
                 (A") (A') (A') (A') (A') (A") (A') (A") (A') (A')
                 (A") (A") (A') (A') (A')
 The electronic state is 2-A".
 Alpha  occ. eigenvalues --  -20.67853 -20.66668  -1.58329  -1.19731  -0.76881
 Alpha  occ. eigenvalues --   -0.75159  -0.67039  -0.51386  -0.51103
 Alpha virt. eigenvalues --    0.17228   0.36454   0.77861   1.08863   1.09757
 Alpha virt. eigenvalues --    1.13979   1.16204   1.19645   1.26259   1.51705
 Alpha virt. eigenvalues --    1.52890   1.70600   2.00616   2.35777   2.45891
 Alpha virt. eigenvalues --    2.70635   2.82189   2.83995   2.94887   3.21943
 Alpha virt. eigenvalues --    3.50302   3.61522   3.89252   4.23009
  Beta  occ. eigenvalues --  -20.65860 -20.63790  -1.52137  -1.09733  -0.74863
  Beta  occ. eigenvalues --   -0.64585  -0.56702  -0.47571
  Beta virt. eigenvalues --    0.14148   0.17499   0.40075   0.78045   1.11007
  Beta virt. eigenvalues --    1.15650   1.16628   1.17713   1.27527   1.32753
  Beta virt. eigenvalues --    1.52214   1.53951   1.72293   2.02020   2.36425
  Beta virt. eigenvalues --    2.52090   2.71567   2.92308   2.96058   2.97304
  Beta virt. eigenvalues --    3.24621   3.56766   3.62486   3.90734   4.24961
          Condensed to atoms (all electrons):
               1          2          3
     1  O    8.014607   0.094322  -0.039909
     2  O    0.094322   7.698136   0.346431
     3  H   -0.039909   0.346431   0.485568
          Atomic-Atomic Spin Densities.
               1          2          3
     1  O    1.049525  -0.121240  -0.000879
     2  O   -0.121240   0.203838   0.001335
     3  H   -0.000879   0.001335  -0.011794
 Mulliken charges and spin densities:
               1          2
     1  O   -0.069021   0.927405
     2  O   -0.138889   0.083933
     3  H    0.207909  -0.011339
 Sum of Mulliken charges =  -0.00000   1.00000
 Mulliken charges and spin densities with hydrogens summed into heavy atoms:
               1          2
     1  O   -0.069021   0.927405
     2  O    0.069021   0.072595
 Electronic spatial extent (au):  <R**2>=             53.4185
 Charge=             -0.0000 electrons
 Dipole moment (field-independent basis, Debye):
    X=             -1.8402    Y=             -0.9392    Z=              0.0000  Tot=              2.0660
 Quadrupole moment (field-independent basis, Debye-Ang):
   XX=             -9.5221   YY=            -10.8343   ZZ=            -10.6134
   XY=              1.7296   XZ=             -0.0000   YZ=              0.0000
 Traceless Quadrupole moment (field-independent basis, Debye-Ang):
   XX=              0.8012   YY=             -0.5111   ZZ=             -0.2901
   XY=              1.7296   XZ=             -0.0000   YZ=              0.0000
 Octapole moment (field-independent basis, Debye-Ang**2):
  XXX=             -2.2860  YYY=             -1.3442  ZZZ=             -0.0000  XYY=             -1.8048
  XXY=             -1.8493  XXZ=              0.0000  XZZ=             -0.2073  YZZ=              0.4556
  YYZ=              0.0000  XYZ=              0.0000
 Hexadecapole moment (field-independent basis, Debye-Ang**3):
 XXXX=             -7.8234 YYYY=            -34.4264 ZZZZ=             -6.9320 XXXY=              0.4227
 XXXZ=             -0.0000 YYYX=              0.4903 YYYZ=              0.0000 ZZZX=              0.0000
 ZZZY=              0.0000 XXYY=             -6.8414 XXZZ=             -2.7553 YYZZ=             -7.2173
 XXYZ=              0.0000 YYXZ=             -0.0000 ZZXY=             -0.2867
 N-N= 3.245304188229D+01 E-N=-4.218026200979D+02  KE= 1.502152527327D+02
 Symmetry A'   KE= 1.428723866851D+02
 Symmetry A"   KE= 7.342866047610D+00
 1\1\GINC-B460\SP\UCCSD-FC\CC-pVDZ\H1O2(2)\KMOORE\27-Jan-2019\0\\# UHF 
 CCSD/cc-pVDZ\\Single Point\\0,2\O,0,0.,0.,0.\O,0,0.,0.,1.311565\H,0,0.
 943625,0.,1.573176\\Version=ES64L-G09RevE.01\State=2-A"\HF=-150.187604
 9\MP2=-150.5300263\MP3=-150.5393538\MP4D=-150.5466053\MP4DQ=-150.54187
 97\PUHF=-150.1915648\PMP2-0=-150.5322825\PMP3-0=-150.5405774\MP4SDQ=-1
 50.5468869\CCSD=-150.5496048\S2=0.758818\S2-1=0.751201\S2A=0.750056\RM
 SD=8.836e-09\PG=CS [SG(H1O2)]\\@


 ALL THINGS ARE POSSIBLE EXCEPT SKIING THROUGH A REVOLVING DOOR.
 Job cpu time:       0 days  0 hours  0 minutes  2.2 seconds.
 File lengths (MBytes):  RWF=     14 Int=      0 D2E=      0 Chk=      1 Scr=      1
 Normal termination of Gaussian 09 at Sun Jan 27 13:22:59 2019.
