 Entering Gaussian System, Link 0=g09
 Initial command:
 /soft/gaussian/09-e.01/g09/l1.exe "/scratch/kmoore/Gau-129469.inp" -scrdir="/scratch/kmoore"
 Entering Link 1 = /soft/gaussian/09-e.01/g09/l1.exe PID=    129470.
  
 Copyright (c) 1988,1990,1992,1993,1995,1998,2003,2009,2015,
            Gaussian, Inc.  All Rights Reserved.
  
 This is part of the Gaussian(R) 09 program.  It is based on
 the Gaussian(R) 03 system (copyright 2003, Gaussian, Inc.),
 the Gaussian(R) 98 system (copyright 1998, Gaussian, Inc.),
 the Gaussian(R) 94 system (copyright 1995, Gaussian, Inc.),
 the Gaussian 92(TM) system (copyright 1992, Gaussian, Inc.),
 the Gaussian 90(TM) system (copyright 1990, Gaussian, Inc.),
 the Gaussian 88(TM) system (copyright 1988, Gaussian, Inc.),
 the Gaussian 86(TM) system (copyright 1986, Carnegie Mellon
 University), and the Gaussian 82(TM) system (copyright 1983,
 Carnegie Mellon University). Gaussian is a federally registered
 trademark of Gaussian, Inc.
  
 This software contains proprietary and confidential information,
 including trade secrets, belonging to Gaussian, Inc.
  
 This software is provided under written license and may be
 used, copied, transmitted, or stored only in accord with that
 written license.
  
 The following legend is applicable only to US Government
 contracts under FAR:
  
                    RESTRICTED RIGHTS LEGEND
  
 Use, reproduction and disclosure by the US Government is
 subject to restrictions as set forth in subparagraphs (a)
 and (c) of the Commercial Computer Software - Restricted
 Rights clause in FAR 52.227-19.
  
 Gaussian, Inc.
 340 Quinnipiac St., Bldg. 40, Wallingford CT 06492
  
  
 ---------------------------------------------------------------
 Warning -- This program may not be used in any manner that
 competes with the business of Gaussian, Inc. or will provide
 assistance to any competitor of Gaussian, Inc.  The licensee
 of this program is prohibited from giving any competitor of
 Gaussian, Inc. access to this program.  By using this program,
 the user acknowledges that Gaussian, Inc. is engaged in the
 business of creating and licensing software in the field of
 computational chemistry and represents and warrants to the
 licensee that it is not a competitor of Gaussian, Inc. and that
 it will not use this program in any manner prohibited above.
 ---------------------------------------------------------------
  

 Cite this work as:
 Gaussian 09, Revision E.01,
 M. J. Frisch, G. W. Trucks, H. B. Schlegel, G. E. Scuseria, 
 M. A. Robb, J. R. Cheeseman, G. Scalmani, V. Barone, B. Mennucci, 
 G. A. Petersson, H. Nakatsuji, M. Caricato, X. Li, H. P. Hratchian, 
 A. F. Izmaylov, J. Bloino, G. Zheng, J. L. Sonnenberg, M. Hada, 
 M. Ehara, K. Toyota, R. Fukuda, J. Hasegawa, M. Ishida, T. Nakajima, 
 Y. Honda, O. Kitao, H. Nakai, T. Vreven, J. A. Montgomery, Jr., 
 J. E. Peralta, F. Ogliaro, M. Bearpark, J. J. Heyd, E. Brothers, 
 K. N. Kudin, V. N. Staroverov, T. Keith, R. Kobayashi, J. Normand, 
 K. Raghavachari, A. Rendell, J. C. Burant, S. S. Iyengar, J. Tomasi, 
 M. Cossi, N. Rega, J. M. Millam, M. Klene, J. E. Knox, J. B. Cross, 
 V. Bakken, C. Adamo, J. Jaramillo, R. Gomperts, R. E. Stratmann, 
 O. Yazyev, A. J. Austin, R. Cammi, C. Pomelli, J. W. Ochterski, 
 R. L. Martin, K. Morokuma, V. G. Zakrzewski, G. A. Voth, 
 P. Salvador, J. J. Dannenberg, S. Dapprich, A. D. Daniels, 
 O. Farkas, J. B. Foresman, J. V. Ortiz, J. Cioslowski, 
 and D. J. Fox, Gaussian, Inc., Wallingford CT, 2013.
 
 ******************************************
 Gaussian 09:  ES64L-G09RevE.01 30-Nov-2015
                30-Jan-2019 
 ******************************************
 %mem=30gb
 %nproc=8
 Will use up to    8 processors via shared memory.
 -------------------------------------------------
 #B3LYP/cc-pVDZ Integral(Grid=SuperFineGrid) Force
 -------------------------------------------------
 1/10=7,30=1,38=1/1,3;
 2/12=2,17=6,18=5,40=1/2;
 3/5=16,11=2,16=1,25=1,30=1,71=1,74=-5,75=-7/1,2,3;
 4//1;
 5/5=2,38=5/2;
 6/7=2,8=2,9=2,10=2,28=1/1;
 7/29=1/1,2,3,16;
 1/10=7,30=1/3;
 99//99;
 ------------
 Optimization
 ------------
 Symbolic Z-matrix:
 Charge =  0 Multiplicity = 1
 H                     0.        0.        0. 
 O                     0.        0.        0.992 
 C                     1.34384   0.        1.37734 
 H                     1.39995   0.        2.48492 
 H                     1.85219   0.91576   1.00383 
 H                     1.85219  -0.91576   1.00383 
 

 GradGradGradGradGradGradGradGradGradGradGradGradGradGradGradGradGradGrad
 Berny optimization.
 Initialization pass.
 Trust Radius=3.00D-01 FncErr=1.00D-07 GrdErr=1.00D-07
 Number of steps in this run=      2 maximum allowed number of steps=      2.
 GradGradGradGradGradGradGradGradGradGradGradGradGradGradGradGradGradGrad

                          Input orientation:                          
 ---------------------------------------------------------------------
 Center     Atomic      Atomic             Coordinates (Angstroms)
 Number     Number       Type             X           Y           Z
 ---------------------------------------------------------------------
      1          1           0        0.000000    0.000000    0.000000
      2          8           0        0.000000    0.000000    0.992000
      3          6           0        1.343844    0.000000    1.377341
      4          1           0        1.399951    0.000000    2.484921
      5          1           0        1.852185    0.915763    1.003828
      6          1           0        1.852185   -0.915763    1.003828
 ---------------------------------------------------------------------
                    Distance matrix (angstroms):
                    1          2          3          4          5
     1  H    0.000000
     2  O    0.992000   0.000000
     3  C    1.924314   1.398000   0.000000
     4  H    2.852139   2.046625   1.109000   0.000000
     5  H    2.297146   2.066241   1.112000   1.799104   0.000000
     6  H    2.297146   2.066241   1.112000   1.799104   1.831526
                    6
     6  H    0.000000
 Stoichiometry    CH4O
 Framework group  CS[SG(CH2O),X(H2)]
 Deg. of freedom     8
 Full point group                 CS      NOp   2
 Largest Abelian subgroup         CS      NOp   2
 Largest concise Abelian subgroup CS      NOp   2
                         Standard orientation:                         
 ---------------------------------------------------------------------
 Center     Atomic      Atomic             Coordinates (Angstroms)
 Number     Number       Type             X           Y           Z
 ---------------------------------------------------------------------
      1          1           0       -0.903422   -1.020053   -0.000000
      2          8           0        0.050149   -0.746621   -0.000000
      3          6           0        0.050149    0.651379    0.000000
      4          1           0        1.099358    1.010603    0.000000
      5          1           0       -0.449012    1.037074    0.915763
      6          1           0       -0.449012    1.037074   -0.915763
 ---------------------------------------------------------------------
 Rotational constants (GHZ):    122.2090309     25.4333789     24.5028354
 Standard basis: CC-pVDZ (5D, 7F)
 There are    35 symmetry adapted cartesian basis functions of A'  symmetry.
 There are    15 symmetry adapted cartesian basis functions of A"  symmetry.
 There are    33 symmetry adapted basis functions of A'  symmetry.
 There are    15 symmetry adapted basis functions of A"  symmetry.
    48 basis functions,    94 primitive gaussians,    50 cartesian basis functions
     9 alpha electrons        9 beta electrons
       nuclear repulsion energy        40.3498870181 Hartrees.
 NAtoms=    6 NActive=    6 NUniq=    5 SFac= 1.44D+00 NAtFMM=   60 NAOKFM=F Big=F
 Integral buffers will be    131072 words long.
 Raffenetti 2 integral format.
 Two-electron integral symmetry is turned on.
 One-electron integrals computed using PRISM.
 NBasis=    48 RedAO= T EigKep=  2.23D-02  NBF=    33    15
 NBsUse=    48 1.00D-06 EigRej= -1.00D+00 NBFU=    33    15
 ExpMin= 1.22D-01 ExpMax= 1.17D+04 ExpMxC= 4.01D+02 IAcc=3 IRadAn=         7 AccDes= 0.00D+00
 Harris functional with IExCor=  402 and IRadAn=       7 diagonalized for initial guess.
 HarFok:  IExCor=  402 AccDes= 0.00D+00 IRadAn=         7 IDoV= 1 UseB2=F ITyADJ=14
 ICtDFT=  3500011 ScaDFX=  1.000000  1.000000  1.000000  1.000000
 FoFCou: FMM=F IPFlag=           0 FMFlag=      100000 FMFlg1=           0
         NFxFlg=           0 DoJE=T BraDBF=F KetDBF=T FulRan=T
         wScrn=  0.000000 ICntrl=     500 IOpCl=  0 I1Cent=   200000004 NGrid=           0
         NMat0=    1 NMatS0=      1 NMatT0=    0 NMatD0=    1 NMtDS0=    0 NMtDT0=    0
 Petite list used in FoFCou.
 Initial guess orbital symmetries:
       Occupied  (A') (A') (A') (A') (A') (A") (A') (A') (A")
       Virtual   (A') (A') (A') (A") (A') (A') (A") (A') (A') (A")
                 (A') (A') (A') (A") (A') (A') (A") (A') (A") (A")
                 (A') (A") (A') (A') (A") (A') (A') (A') (A') (A")
                 (A') (A") (A') (A') (A") (A") (A') (A') (A')
 The electronic state of the initial guess is 1-A'.
 Keep R1 ints in memory in symmetry-blocked form, NReq=1597446.
 Requested convergence on RMS density matrix=1.00D-08 within 128 cycles.
 Requested convergence on MAX density matrix=1.00D-06.
 Requested convergence on             energy=1.00D-06.
 No special actions if energy rises.
 Integral accuracy reduced to 1.0D-05 until final iterations.
 Initial convergence to 1.0D-05 achieved.  Increase integral accuracy.
 SCF Done:  E(RB3LYP) =  -115.721091627     A.U. after   11 cycles
            NFock= 11  Conv=0.38D-08     -V/T= 2.0067

 **********************************************************************

            Population analysis using the SCF density.

 **********************************************************************

 Orbital symmetries:
       Occupied  (A') (A') (A') (A') (A') (A") (A') (A') (A")
       Virtual   (A') (A') (A") (A') (A') (A') (A") (A') (A') (A")
                 (A') (A') (A') (A") (A') (A') (A") (A') (A") (A')
                 (A") (A") (A') (A') (A") (A') (A') (A') (A') (A")
                 (A') (A") (A') (A') (A") (A") (A') (A') (A')
 The electronic state is 1-A'.
 Alpha  occ. eigenvalues --  -19.13007 -10.22684  -1.01270  -0.66929  -0.49711
 Alpha  occ. eigenvalues --   -0.43693  -0.41989  -0.32469  -0.26124
 Alpha virt. eigenvalues --    0.04952   0.09272   0.13490   0.13606   0.19843
 Alpha virt. eigenvalues --    0.44703   0.46451   0.49283   0.55933   0.62469
 Alpha virt. eigenvalues --    0.64157   0.64574   0.87197   0.89466   0.94986
 Alpha virt. eigenvalues --    1.00335   1.06572   1.19360   1.33822   1.39929
 Alpha virt. eigenvalues --    1.39929   1.57718   1.61232   1.64348   1.66735
 Alpha virt. eigenvalues --    1.75093   1.86637   1.96694   2.05547   2.06942
 Alpha virt. eigenvalues --    2.13436   2.37515   2.38997   2.40381   2.92576
 Alpha virt. eigenvalues --    3.01410   3.07475   3.18961   3.64241
          Condensed to atoms (all electrons):
               1          2          3          4          5          6
     1  H    0.568119   0.338797  -0.048287   0.009619  -0.007770  -0.007770
     2  O    0.338797   7.671457   0.369502  -0.024173  -0.036016  -0.036016
     3  C   -0.048287   0.369502   4.413583   0.395548   0.389117   0.389117
     4  H    0.009619  -0.024173   0.395548   0.658885  -0.036050  -0.036050
     5  H   -0.007770  -0.036016   0.389117  -0.036050   0.729247  -0.044837
     6  H   -0.007770  -0.036016   0.389117  -0.036050  -0.044837   0.729247
 Mulliken charges:
               1
     1  H    0.147292
     2  O   -0.283551
     3  C    0.091419
     4  H    0.032222
     5  H    0.006309
     6  H    0.006309
 Sum of Mulliken charges =  -0.00000
 Mulliken charges with hydrogens summed into heavy atoms:
               1
     2  O   -0.136259
     3  C    0.136259
 Electronic spatial extent (au):  <R**2>=             83.3451
 Charge=             -0.0000 electrons
 Dipole moment (field-independent basis, Debye):
    X=             -1.3469    Y=              0.7579    Z=             -0.0000  Tot=              1.5455
 Quadrupole moment (field-independent basis, Debye-Ang):
   XX=            -11.5662   YY=            -13.2683   ZZ=            -13.4969
   XY=              2.0318   XZ=              0.0000   YZ=             -0.0000
 Traceless Quadrupole moment (field-independent basis, Debye-Ang):
   XX=              1.2109   YY=             -0.4911   ZZ=             -0.7198
   XY=              2.0318   XZ=              0.0000   YZ=             -0.0000
 Octapole moment (field-independent basis, Debye-Ang**2):
  XXX=             -1.1721  YYY=             -4.3285  ZZZ=             -0.0000  XYY=             -1.8350
  XXY=             -2.4625  XXZ=             -0.0000  XZZ=             -0.4739  YZZ=             -0.8414
  YYZ=             -0.0000  XYZ=              0.0000
 Hexadecapole moment (field-independent basis, Debye-Ang**3):
 XXXX=            -19.3143 YYYY=            -60.0245 ZZZZ=            -19.7219 XXXY=              0.7576
 XXXZ=             -0.0000 YYYX=              0.7503 YYYZ=              0.0000 ZZZX=             -0.0000
 ZZZY=              0.0000 XXYY=            -12.0220 XXZZ=             -6.9043 YYZZ=            -13.6553
 XXYZ=              0.0000 YYXZ=              0.0000 ZZXY=             -0.8306
 N-N= 4.034988701812D+01 E-N=-3.521262580234D+02  KE= 1.149561419194D+02
 Symmetry A'   KE= 1.083370790488D+02
 Symmetry A"   KE= 6.619062870645D+00
 Calling FoFJK, ICntrl=      2127 FMM=F ISym2X=1 I1Cent= 0 IOpClX= 0 NMat=1 NMatS=1 NMatT=0.
 ***** Axes restored to original set *****
 -------------------------------------------------------------------
 Center     Atomic                   Forces (Hartrees/Bohr)
 Number     Number              X              Y              Z
 -------------------------------------------------------------------
      1        1          -0.002578482   -0.000000000    0.022151696
      2        8          -0.015837392    0.000000000   -0.022965596
      3        6           0.008422880   -0.000000000    0.000516304
      4        1          -0.001702736   -0.000000000   -0.004764567
      5        1           0.005847865   -0.004384089    0.002531082
      6        1           0.005847865    0.004384089    0.002531082
 -------------------------------------------------------------------
 Cartesian Forces:  Max     0.022965596 RMS     0.009104480

 GradGradGradGradGradGradGradGradGradGradGradGradGradGradGradGradGradGrad
 Berny optimization.
 Search for a local minimum.
 Step number   1 out of a maximum of    2
 All quantities printed in internal units (Hartrees-Bohrs-Radians)
 Second derivative matrix not updated -- first step.
 The second derivative matrix:
                          X1        Y1        Z1        X2        Y2
           X1           0.04553
           Y1          -0.00000   0.01587
           Z1          -0.00000   0.00000   0.49123
           X2          -0.05444   0.00000   0.00000   0.49231
           Y2           0.00000  -0.01902  -0.00000  -0.00000   0.05881
           Z2           0.03106  -0.00000  -0.49123   0.07554  -0.00000
           X3           0.00891  -0.00000  -0.00000  -0.43949   0.00000
           Y3          -0.00000   0.00297  -0.00000   0.00000  -0.05716
           Z3          -0.03106   0.00000   0.00000  -0.07125   0.00000
           X4           0.00000   0.00000  -0.00000   0.00798  -0.00000
           Y4           0.00000   0.00481  -0.00000  -0.00000  -0.00433
           Z4          -0.00000  -0.00000   0.00000  -0.00040   0.00000
           X5           0.00000   0.00117  -0.00000  -0.00318  -0.02330
           Y5          -0.00000  -0.00232   0.00000   0.00097   0.01085
           Z5          -0.00000  -0.00408   0.00000  -0.00194  -0.00511
           X6          -0.00000  -0.00117   0.00000  -0.00318   0.02330
           Y6          -0.00000  -0.00232   0.00000  -0.00097   0.01085
           Z6           0.00000   0.00408  -0.00000  -0.00194   0.00511
                          Z2        X3        Y3        Z3        X4
           Z2           0.57902
           X3          -0.10095   0.76034
           Y3           0.00000   0.00000   0.61939
           Z3          -0.10275   0.03621  -0.00000   0.63313
           X4          -0.02783  -0.07147   0.00000  -0.02004   0.05558
           Y4           0.00000   0.00000  -0.07729  -0.00000  -0.00000
           Z4           0.00141  -0.01295   0.00000  -0.32605   0.01375
           X5           0.01109  -0.12914  -0.09804   0.04307   0.00396
           Y5          -0.00339  -0.09226  -0.24395   0.06653   0.00476
           Z5           0.00677   0.03884   0.06256  -0.10217   0.01706
           X6           0.01109  -0.12914   0.09804   0.04307   0.00396
           Y6           0.00339   0.09226  -0.24395  -0.06653  -0.00476
           Z6           0.00677   0.03884  -0.06256  -0.10217   0.01706
                          Y4        Z4        X5        Y5        Z5
           Y4           0.05951
           Z4          -0.00000   0.32636
           X5           0.00628  -0.00020   0.11222
           Y5           0.00865  -0.00024   0.10021   0.23849
           Z5           0.02975  -0.00086  -0.04239  -0.07300   0.08722
           X6          -0.00628  -0.00020   0.01614  -0.01368  -0.01157
           Y6           0.00865   0.00024   0.01368  -0.01172  -0.01011
           Z6          -0.02975  -0.00086  -0.01157   0.01011   0.00904
                          X6        Y6        Z6
           X6           0.11222
           Y6          -0.10021   0.23849
           Z6          -0.04239   0.07300   0.08722
 ITU=  0
     Eigenvalues ---    0.02772   0.04416   0.08385   0.08962   0.12634
     Eigenvalues ---    0.12882   0.14893   0.33682   0.73742   0.77874
     Eigenvalues ---    0.86234   1.18636
 Angle between quadratic step and forces=  62.44 degrees.
 ClnCor:  largest displacement from symmetrization is 5.64D-14 for atom     6.
 Linear search not attempted -- first point.
 ClnCor:  largest displacement from symmetrization is 3.50D-15 for atom     1.
 B after Tr=    -0.006668    0.000000   -0.008996
         Rot=    1.000000   -0.000000   -0.000024   -0.000000 Ang=  -0.00 deg.
 Variable       Old X    -DE/DX   Delta X   Delta X   Delta X     New X
                                 (Linear)    (Quad)   (Total)
    X1       -0.00000  -0.00258   0.00000  -0.10553  -0.11220  -0.11220
    Y1        0.00000  -0.00000   0.00000   0.00000   0.00000   0.00000
    Z1       -0.00000   0.02215   0.00000   0.03407   0.02508   0.02508
    X2       -0.00000  -0.01584   0.00000  -0.03157  -0.03815  -0.03815
    Y2        0.00000   0.00000   0.00000   0.00000  -0.00000   0.00000
    Z2        1.87461  -0.02297   0.00000  -0.01103  -0.02002   1.85459
    X3        2.53950   0.00842   0.00000   0.01266   0.00611   2.54561
    Y3       -0.00000  -0.00000   0.00000  -0.00000  -0.00000  -0.00000
    Z3        2.60280   0.00052   0.00000  -0.02373  -0.03285   2.56995
    X4        2.64552  -0.00170   0.00000  -0.05295  -0.05940   2.58613
    Y4       -0.00000  -0.00000   0.00000   0.00000  -0.00000  -0.00000
    Z4        4.69582  -0.00476   0.00000  -0.03524  -0.04436   4.65146
    X5        3.50012   0.00585   0.00000   0.10839   0.10182   3.60194
    Y5        1.73054  -0.00438   0.00000  -0.03171  -0.03171   1.69883
    Z5        1.89696   0.00253   0.00000   0.04525   0.03608   1.93304
    X6        3.50012   0.00585   0.00000   0.10839   0.10182   3.60194
    Y6       -1.73054   0.00438   0.00000   0.03171   0.03171  -1.69883
    Z6        1.89696   0.00253   0.00000   0.04525   0.03608   1.93304
         Item               Value     Threshold  Converged?
 Maximum Force            0.022966     0.000450     NO 
 RMS     Force            0.009104     0.000300     NO 
 Maximum Displacement     0.112201     0.001800     NO 
 RMS     Displacement     0.051118     0.001200     NO 
 Predicted change in Energy=-1.953645D-03
 GradGradGradGradGradGradGradGradGradGradGradGradGradGradGradGradGradGrad

 1\1\GINC-B432\Force\RB3LYP\CC-pVDZ\C1H4O1\KMOORE\30-Jan-2019\0\\#B3LYP
 /cc-pVDZ Integral(Grid=SuperFineGrid) Force\\Optimization\\0,1\H,0.,0.
 ,0.\O,0.,0.,0.992\C,1.343844,0.,1.377341\H,1.399951,0.,2.484921\H,1.85
 2185,0.915763,1.003828\H,1.852185,-0.915763,1.003828\\Version=ES64L-G0
 9RevE.01\State=1-A'\HF=-115.7210916\RMSD=3.769e-09\RMSF=9.104e-03\Dipo
 le=0.4327042,0.,-0.4271896\Quadrupole=-1.0695046,-0.5351453,1.6046499,
 0.,0.9457831,0.\PG=CS [SG(C1H2O1),X(H2)]\\@


 MANHOOD BEGINS BY TRYING TO SHAVE FACE,
 AND ENDS BY TRYING TO SAVE FACE.
 Job cpu time:       0 days  0 hours  0 minutes 20.9 seconds.
 File lengths (MBytes):  RWF=      5 Int=      0 D2E=      0 Chk=      1 Scr=      1
 Normal termination of Gaussian 09 at Wed Jan 30 21:31:24 2019.
