
 Primary working directories    : /scratch/kmoore
 Secondary working directories  : /scratch/kmoore
 Wavefunction directory         : /scratch/kmoore/
 Main file repository           : /scratch/kmoore/

 SHA1      : b6b3a4772808bb2d43777f23454e145ddfe12dc3
 NAME      : 2015.1.1
 ARCHNAME  : linux/x86_64
 FC        : /soft/mvapich2/2.2b_psm/intel-15.0/bin/mpif90
 BLASLIB   : -L/soft/intel/15.0.1/composer_xe_2015.0.090/mkl/lib/intel64 -lmkl_intel_ilp64 -lmkl_sequential -lmkl_core
 id        : anlgov

 Nodes     nprocs
 b454         7
 Number of processes for MPI-2 version of Molpro:   nprocs(total)=    8   nprocs(compute)=    7   nprocs(helper)=    1

 Using customized tuning parameters: mindgm=1; mindgv=20; mindgc=4; mindgr=1; noblas=0; minvec=7
 default implementation of scratch files=sf  

 memory,850,m
 gthresh,energy=1.0d-10,orbital=1.0d-10,oneint=1.d-12,twoint=1.d-14
 
 nosym
 angstrom
 Geometry = {
 H        0.000000    0.000000    0.000000
 O        0.000000    0.000000    0.992000
 C        1.343844    0.000000    1.377341
 H        1.399951   -0.000000    2.484921
 H        1.852185    0.915763    1.003828
 H        1.852185   -0.915763    1.003828
 }
 
 basis=cc-pVDZ
 {rks,b3lyp3,maxit=300}
 
 {optg}
 
 {freq
  print,hessian}
 

 Variables initialized (889), CPU time= 0.01 sec
 Commands  initialized (702), CPU time= 0.01 sec, 572 directives.
 Default parameters read. Elapsed time= 0.06 sec

 Checking input...
 Passed
1


                                         ***  PROGRAM SYSTEM MOLPRO  ***
                                       Copyright, TTI GmbH Stuttgart, 2015
                                    Version 2015.1 linked Jan  8 2016 07:59:11


 **********************************************************************************************************************************
 LABEL *                                                                                 
  64 bit mpp version                                                                     DATE: 27-Jan-19          TIME: 13:38:56  
 **********************************************************************************************************************************

 SHA1:             b6b3a4772808bb2d43777f23454e145ddfe12dc3
 **********************************************************************************************************************************

 THRESHOLDS:

 ZERO    =  1.00D-12  ONEINT  =  1.00D-12  TWOINT  =  1.00D-14  PREFAC  =  1.00D-14  LOCALI  =  1.00D-09  EORDER  =  1.00D-04
 ENERGY  =  1.00D-10  ETEST   =  0.00D+00  EDENS   =  0.00D+00  THRDEDEF=  1.00D-06  GRADIENT=  1.00D-02  STEP    =  1.00D-03
 ORBITAL =  1.00D-10  CIVEC   =  1.00D-05  COEFF   =  1.00D-04  PRINTCI =  5.00D-02  PUNCHCI =  9.90D+01  OPTGRAD =  3.00D-04
 OPTENERG=  1.00D-06  OPTSTEP =  3.00D-04  THRGRAD =  1.00D-10  COMPRESS=  1.00D-11  VARMIN  =  1.00D-07  VARMAX  =  1.00D-03
 THRDOUB =  0.00D+00  THRDIV  =  1.00D-05  THRRED  =  1.00D-07  THRPSP  =  1.00D+00  THRDC   =  1.00D-10  THRCS   =  1.00D-10
 THRNRM  =  1.00D-08  THREQ   =  0.00D+00  THRDE   =  1.00D+00  THRREF  =  1.00D-05  SPARFAC =  1.00D+00  THRDLP  =  1.00D-07
 THRDIA  =  1.00D-10  THRDLS  =  1.00D-07  THRGPS  =  0.00D+00  THRKEX  =  0.00D+00  THRDIS  =  2.00D-01  THRVAR  =  1.00D-10
 THRLOC  =  1.00D-06  THRGAP  =  1.00D-06  THRLOCT = -1.00D+00  THRGAPT = -1.00D+00  THRORB  =  1.00D-06  THRMLTP =  0.00D+00
 THRCPQCI=  1.00D-10  KEXTA   =  0.00D+00  THRCOARS=  0.00D+00  SYMTOL  =  1.00D-06  GRADTOL =  1.00D-06  THROVL  =  1.00D-08
 THRORTH =  1.00D-08  GRID    =  1.00D-06  GRIDMAX =  1.00D-03  DTMAX   =  0.00D+00  THROCCDE=  1.00D-01  THROCCDE=  1.00D-01



 Variable memory set to  850000000 words,  buffer space   230000 words

 ZSYMEL=NOSYM
 ZUNIT=ANG
 

Geometry recognized as XYZ

 SETTING BASIS          =    CC-PVDZ


 Recomputing integrals since basis changed


 Using spherical harmonics

 Library entry H      S cc-pVDZ              selected for orbital group  1
 Library entry H      P cc-pVDZ              selected for orbital group  1
 Library entry O      S cc-pVDZ              selected for orbital group  2
 Library entry O      P cc-pVDZ              selected for orbital group  2
 Library entry O      D cc-pVDZ              selected for orbital group  2
 Library entry C      S cc-pVDZ              selected for orbital group  3
 Library entry C      P cc-pVDZ              selected for orbital group  3
 Library entry C      D cc-pVDZ              selected for orbital group  3

1PROGRAM * SEWARD (Integral evaluation for generally contracted gaussian basis sets)     Author: Roland Lindh, 1990

 Geometry written to block  1 of record 700


 Point group  C1  



 ATOMIC COORDINATES

 NR  ATOM    CHARGE       X              Y              Z

   1  H       1.00    0.000000000    0.000000000    0.000000000
   2  O       8.00    0.000000000    0.000000000    1.874608316
   3  C       6.00    2.539497114    0.000000000    2.602797270
   4  H       1.00    2.645523978    0.000000000    4.695820131
   5  H       1.00    3.500122382    1.730541265    1.896959996
   6  H       1.00    3.500122382   -1.730541265    1.896959996

 Bond lengths in Bohr (Angstrom)

 1-2  1.874608316  2-3  2.641837381  3-4  2.095706657  3-5  2.101375795  3-6  2.101375795
     ( 0.992000000)     ( 1.398000137)     ( 1.109000204)     ( 1.112000182)     ( 1.112000182)

 Bond angles

  1-2-3  105.99999739   2-3-4  108.89996734   2-3-5  110.29462235   2-3-6  110.29462235

  4-3-5  108.19999931   4-3-6  108.19999931   5-3-6  110.87901927

 NUCLEAR CHARGE:                   18
 NUMBER OF PRIMITIVE AOS:          82
 NUMBER OF SYMMETRY AOS:           80
 NUMBER OF CONTRACTIONS:           48   (  48A   )
 NUMBER OF CORE ORBITALS:           2   (   2A   )
 NUMBER OF VALENCE ORBITALS:       12   (  12A   )


 NUCLEAR REPULSION ENERGY   40.34988720


 Eigenvalues of metric

         1 0.966E-02 0.178E-01 0.388E-01 0.397E-01 0.411E-01 0.480E-01 0.504E-01 0.544E-01


 Contracted 2-electron integrals neglected if value below      1.0D-14
 AO integral compression algorithm  1   Integral accuracy      1.0D-14

     6.029 MB (compressed) written to integral file ( 95.4%)

     Node minimum: 0.786 MB, node maximum: 1.049 MB


 NUMBER OF SORTED TWO-ELECTRON INTEGRALS:      99372.     BUFFER LENGTH:  32768
 NUMBER OF SEGMENTS:   1  SEGMENT LENGTH:      99372      RECORD LENGTH: 524288

 Memory used in sort:       0.66 MW

 SORT1 READ      839336. AND WROTE       80444. INTEGRALS IN      1 RECORDS. CPU TIME:     0.02 SEC, REAL TIME:     0.03 SEC
 SORT2 READ      552156. AND WROTE      692076. INTEGRALS IN     21 RECORDS. CPU TIME:     0.01 SEC, REAL TIME:     0.01 SEC

 Node minimum:       98364.  Node maximum:       99372. integrals

 OPERATOR DM      FOR CENTER  0  COORDINATES:    0.000000    0.000000    0.000000


 **********************************************************************************************************************************
 DATASETS  * FILE   NREC   LENGTH (MB)   RECORD NAMES
              1      18       19.24       500      610      700      900      950      970     1000      129      960     1100   
                                          VAR    BASINP    GEOM    SYMINP    ZMAT    AOBASIS   BASIS     P2S    ABASIS      S 
                                         1400     1410     1200     1210     1080     1600     1650     1700   
                                           T        V       H0       H01     AOSYM     SMH    MOLCAS    OPER   

 PROGRAMS   *        TOTAL       INT
 CPU TIMES  *         0.38      0.25
 REAL TIME  *         0.78 SEC
 DISK USED  *        34.00 MB      
 GA USED    *         0.00 MB       (max)       0.00 MB       (current)
 **********************************************************************************************************************************

 Density functional group B3LYP3=B88+DIRAC+LYP+VWN3
 Functional: B88(Automatically generated (new) B88)                            Gradient terms: 1
 Functional: DIRAC(Automatically generated (new) DIRAC)                        Gradient terms: 0
 Functional: LYP(Automatically generated (new) LYP)                            Gradient terms: 1
 Functional: VWN3(Automatically generated (new) VWN3)                          Gradient terms: 0
 Use grid at  1800.2
 

 Exact exchange will be calculated, factor:  0.2000

 Functional: B88                       Factor:  0.7200
 Functional: DIRAC                     Factor:  0.0800
 Functional: LYP                       Factor:  0.8100
 Functional: VWN3                      Factor:  0.1900
 
 Generated new metagrid on record  1800.2 with target accuracy 1.0D-06 and 21032 points in CPU time    0.1
 Computed new grid on record 1800.1 in CPU time    0.1
   42186 words reserved for DFT integration

 PROGRAM * RKS-SCF (Restricted closed shell Kohn-Sham)     Authors: W. Meyer, H.-J. Werner, P.J. Knowles, 1993

 NUMBER OF ELECTRONS:       9+    9-    SPACE SYMMETRY=1    SPIN SYMMETRY: Singlet 
 CONVERGENCE THRESHOLDS:    1.00E-10 (Density)    1.00E-10 (Energy)
 MAX. NUMBER OF ITERATIONS:      300
 INTERPOLATION TYPE:            DIIS
 INTERPOLATION STEPS:              2 (START)      1 (STEP)
 LEVEL SHIFTS:                  0.00 (CLOSED)  0.00 (OPEN) 



 Use fine grid record 1800.2 for energy threshold  1.0D-06
 Orbital guess generated from atomic densities. Full valence occupancy:   14

 Molecular orbital dump at record        2100.2

 Initial occupancy:   9

 ITERATION    DDIFF          GRAD             ENERGY        2-EL.EN.            DIPOLE MOMENTS         DIIS   ORB.
    1      0.000D+00      0.000D+00      -115.65276012    192.619504    0.73751    0.00000   -0.71144    0    start
    2      0.000D+00      0.146D-01      -115.60693549    180.434963   -0.03784    0.00000   -0.08555    1    diag
    3      0.478D-01      0.200D-01      -115.72024275    187.295312    0.46624    0.00000   -0.42114    2    diag
    4      0.259D-01      0.167D-02      -115.72097082    187.331546    0.42563    0.00000   -0.42717    3    diag
    5      0.309D-02      0.642D-03      -115.72109161    187.277097    0.43228    0.00000   -0.42764    4    diag
    6      0.962D-03      0.843D-04      -115.72109377    187.294249    0.43260    0.00000   -0.42687    5    diag
    7      0.122D-03      0.626D-05      -115.72109378    187.295651    0.43273    0.00000   -0.42729    6    diag
    8      0.107D-04      0.114D-05      -115.72109378    187.295838    0.43273    0.00000   -0.42720    7    diag
    9      0.221D-05      0.164D-06      -115.72109378    187.295820    0.43273    0.00000   -0.42721    8    diag
   10      0.236D-06      0.235D-07      -115.72109378    187.295819    0.43273    0.00000   -0.42721    9    orth
   11      0.374D-07      0.214D-08      -115.72109378    187.295819    0.43273    0.00000   -0.42721    9    diag
   12      0.358D-08      0.347D-09      -115.72109378    187.295819    0.43273    0.00000   -0.42721    9    diag
   13      0.482D-09      0.279D-10      -115.72109378    187.295819    0.43273    0.00000   -0.42721    9    diag
   14      0.670D-10      0.539D-11      -115.72109378    187.295819    0.43273    0.00000   -0.42721    0    orth

 Final occupancy:   9

 !RKS STATE 1.1 Energy               -115.721093780526
 Nuclear energy                        40.34988720
 One-electron energy                 -237.17013187
 Two-electron energy                   93.64790950
 SCF exchange energy                  -14.83018834     Factor= 0.2000
 Density functional                   -12.54875861     B88=-14.87037513 DIRAC=-13.40890731 LYP= -0.59562953 VWN3= -1.51008426
 Virial quotient                       -1.00665418
 !RKS STATE 1.1 Dipole moment           0.43272883     0.00000000    -0.42720918
 Dipole moment /Debye                   1.09981494     0.00000000    -1.08578631

 Orbital energies:

         1.1          2.1          3.1          4.1          5.1          6.1          7.1          8.1          9.1         10.1
    -19.130066   -10.226836    -1.012701    -0.669288    -0.497107    -0.436926    -0.419893    -0.324689    -0.261242     0.049514

        11.1
      0.092723

 HOMO      9.1    -0.261242 =      -7.1088eV
 LUMO     10.1     0.049514 =       1.3474eV
 LUMO-HOMO         0.310756 =       8.4561eV


 **********************************************************************************************************************************
 DATASETS  * FILE   NREC   LENGTH (MB)   RECORD NAMES
              1      19       19.24       500      610      700      900      950      970     1000      129      960     1100   
                                          VAR    BASINP    GEOM    SYMINP    ZMAT    AOBASIS   BASIS     P2S    ABASIS      S 
                                         1400     1410     1200     1210     1080     1600     1650     1700     1800   
                                           T        V       H0       H01     AOSYM     SMH    MOLCAS    OPER     GRID   

              2       5        0.50       700     1000      520     1800     2100   
                                         GEOM     BASIS   MCVARS    GRID      RKS  

 PROGRAMS   *        TOTAL       RKS       INT
 CPU TIMES  *         0.65      0.27      0.25
 REAL TIME  *         1.05 SEC
 DISK USED  *       173.71 MB      
 SF USED    *         0.01 MB      
 GA USED    *         0.74 MB       (max)       0.74 MB       (current)
 **********************************************************************************************************************************


 PROGRAM * OPT (Geometry optimization)     Authors: F. Eckert and H.-J. Werner


 BFGS update of hessian

 Running default procedure: RKS-SCF000

 Geometry optimization using default procedure for command RKS-SCF

 Geometry written to block  1 of record 700
1PROGRAM * ALASKA (Gradient of the energy)     Author: R. Lindh

 Orbitals from record         2100.2

 Number of closed-shell orbitals:  9 (  9 )
 Number of occupied orbitals:      9 (  9 )

 Number of electrons= 18     Singlet     Space symmetry=1      Wavefunction type: CLOSED          

 Gradient contributions of integration grid neglected (GRIDGRAD=0).
 Computed new grid on record 1800.1 in CPU time    0.0

 DFT GRADIENT, EXFAC=     0.200

 RKS GRADIENT FOR STATE 1.1

 Atom          dE/dx               dE/dy               dE/dz

   1         0.002575845         0.000000000        -0.022147129
   2         0.015833624         0.000000000         0.022965774
   3        -0.008427316         0.000000000        -0.000515869
   4         0.001705170         0.000000000         0.004757895
   5        -0.005844178         0.004382455        -0.002535140
   6        -0.005844178        -0.004382455        -0.002535140

 Nuclear force contribution to virial =         0.011800515
 Reading points  1 to  1 from record 700.2,  wavefunction type=RKS-SCF000      

 Making model hessian for cartesian coordinates
 No hessian update for point  1

 Entering Rational Function Geometry Optimization

 Optimization point  1

 Variable                      Last           Current        Next           Gradient       Hessian
 E(RKS-SCF000) / Hartree     0.00000000  -115.72109378  -115.72284687
 GX1 / ANGSTROM              0.00000000     0.00000000    -0.04727768     0.00486764    -0.00000000
 GY1 / ANGSTROM              0.00000000     0.00000000     0.00000000     0.00000000    -0.00000000
 GZ1 / ANGSTROM              0.00000000     0.00000000     0.01194105    -0.04185201    -0.00000000
 GX2 / ANGSTROM              0.00000000     0.00000000    -0.02080101     0.02992121    -0.00000000
 GY2 / ANGSTROM              0.00000000     0.00000000    -0.00000000     0.00000000     0.00000000
 GZ2 / ANGSTROM              0.00000000     0.99200000     0.98571785     0.04339902     0.00000000
 GX3 / ANGSTROM              0.00000000     1.34384400     1.33978046    -0.01592532     0.10201954
 GY3 / ANGSTROM              0.00000000     0.00000000     0.00000000     0.00000000     0.19414752
 GZ3 / ANGSTROM              0.00000000     1.37734100     1.36119187    -0.00097485     0.27161178
 GX4 / ANGSTROM              0.00000000     1.39995100     1.37345008     0.00322230     0.31744328
 GY4 / ANGSTROM              0.00000000     0.00000000    -0.00000000     0.00000000     0.41036531
 GZ4 / ANGSTROM              0.00000000     2.48492100     2.46455844     0.00899112     0.41787182
 GX5 / ANGSTROM              0.00000000     1.85218500     1.90150657    -0.01104390     0.67649007
 GY5 / ANGSTROM              0.00000000     0.91576300     0.89579787     0.00828164     1.82482682
 GZ5 / ANGSTROM              0.00000000     1.00382800     1.01925439    -0.00479072     4.04728015
 GX6 / ANGSTROM              0.00000000     1.85218500     1.90150657    -0.01104390     4.13707662
 GY6 / ANGSTROM              0.00000000    -0.91576300    -0.89579787    -0.00828164     4.58538285
 GZ6 / ANGSTROM              0.00000000     1.00382800     1.01925439    -0.00479072     5.74162196
 Convergence:                0.00000000  (line search)     0.19255326     0.03862209  (total)

 Geometry written to block  2 of record 700


 Recomputing integrals since geometry changed

1PROGRAM * SEWARD (Integral evaluation for generally contracted gaussian basis sets)     Author: Roland Lindh, 1990

 Geometry written to block  2 of record 700


 Point group  C1  



 ATOMIC COORDINATES

 NR  ATOM    CHARGE       X              Y              Z

   1  H       1.00   -0.089341863    0.000000000    0.022565312
   2  O       8.00   -0.039308204   -0.000000000    1.862736778
   3  C       6.00    2.531818139    0.000000000    2.572279843
   4  H       1.00    2.595444489   -0.000000000    4.657340465
   5  H       1.00    3.593326647    1.692812641    1.926111656
   6  H       1.00    3.593326647   -1.692812641    1.926111656

 Bond lengths in Bohr (Angstrom)

 1-2  1.840851539  2-3  2.667234904  3-4  2.086031187  3-5  2.099987684  3-6  2.099987684
     ( 0.974136683)     ( 1.411439927)     ( 1.103880165)     ( 1.111265626)     ( 1.111265626)

 Bond angles

  1-2-3  106.98515657   2-3-4  107.17554507   2-3-5  113.91706717   2-3-6  113.91706717

  4-3-5  106.98611575   4-3-6  106.98611575   5-3-6  107.43440362

 NUCLEAR CHARGE:                   18
 NUMBER OF PRIMITIVE AOS:          82
 NUMBER OF SYMMETRY AOS:           80
 NUMBER OF CONTRACTIONS:           48   (  48A   )
 NUMBER OF CORE ORBITALS:           2   (   2A   )
 NUMBER OF VALENCE ORBITALS:       12   (  12A   )


 NUCLEAR REPULSION ENERGY   40.17123105


 Eigenvalues of metric

         1 0.984E-02 0.176E-01 0.385E-01 0.391E-01 0.394E-01 0.488E-01 0.509E-01 0.539E-01


 Contracted 2-electron integrals neglected if value below      1.0D-14
 AO integral compression algorithm  1   Integral accuracy      1.0D-14

     6.029 MB (compressed) written to integral file ( 96.4%)

     Node minimum: 0.786 MB, node maximum: 1.049 MB


 NUMBER OF SORTED TWO-ELECTRON INTEGRALS:      99372.     BUFFER LENGTH:  32768
 NUMBER OF SEGMENTS:   1  SEGMENT LENGTH:      99372      RECORD LENGTH: 524288

 Memory used in sort:       0.66 MW

 SORT1 READ      839336. AND WROTE       80967. INTEGRALS IN      1 RECORDS. CPU TIME:     0.02 SEC, REAL TIME:     0.02 SEC
 SORT2 READ      555544. AND WROTE      692076. INTEGRALS IN     21 RECORDS. CPU TIME:     0.00 SEC, REAL TIME:     0.01 SEC

 Node minimum:       98364.  Node maximum:       99372. integrals

 OPERATOR DM      FOR CENTER  0  COORDINATES:    0.000000    0.000000    0.000000
 Density functional group B3LYP3=B88+DIRAC+LYP+VWN3
 Functional: B88(Automatically generated (new) B88)                            Gradient terms: 1
 Functional: DIRAC(Automatically generated (new) DIRAC)                        Gradient terms: 0
 Functional: LYP(Automatically generated (new) LYP)                            Gradient terms: 1
 Functional: VWN3(Automatically generated (new) VWN3)                          Gradient terms: 0
 Use grid at  1800.2
 

 Exact exchange will be calculated, factor:  0.2000

 Functional: B88                       Factor:  0.7200
 Functional: DIRAC                     Factor:  0.0800
 Functional: LYP                       Factor:  0.8100
 Functional: VWN3                      Factor:  0.1900
 
 Generated new metagrid on record  1800.2 with target accuracy 1.0D-06 and 21076 points in CPU time    0.1
 Computed new grid on record 1800.1 in CPU time    0.1
   42186 words reserved for DFT integration

 PROGRAM * RKS-SCF (Restricted closed shell Kohn-Sham)     Authors: W. Meyer, H.-J. Werner, P.J. Knowles, 1993

 NUMBER OF ELECTRONS:       9+    9-    SPACE SYMMETRY=1    SPIN SYMMETRY: Singlet 
 CONVERGENCE THRESHOLDS:    1.00E-10 (Density)    1.00E-10 (Energy)
 MAX. NUMBER OF ITERATIONS:      300
 INTERPOLATION TYPE:            DIIS
 INTERPOLATION STEPS:              2 (START)      1 (STEP)
 LEVEL SHIFTS:                  0.00 (CLOSED)  0.00 (OPEN) 

 Number of closed-shell orbitals:    9 (   9 )


 Use fine grid record 1800.2 for energy threshold  1.0D-06
 Molecular orbitals read from record     2100.2  Type=RKS/CANONICAL (state 1.1)

 Molecular orbital dump at record        2100.2

 ITERATION    DDIFF          GRAD             ENERGY        2-EL.EN.            DIPOLE MOMENTS         DIIS   ORB.
    1      0.000D+00      0.000D+00      -115.72212013    186.862896    0.42720    0.00000   -0.42067    0    start
    2      0.000D+00      0.109D-02      -115.72266299    186.935737    0.43555   -0.00000   -0.42974    1    diag
    3      0.318D-02      0.252D-03      -115.72265512    186.845844    0.42036    0.00000   -0.42740    2    diag
    4      0.678D-03      0.324D-03      -115.72268207    186.901727    0.42854   -0.00000   -0.42988    3    diag
    5      0.382D-03      0.198D-04      -115.72268217    186.896212    0.42833   -0.00000   -0.42949    4    diag
    6      0.338D-04      0.591D-05      -115.72268218    186.898787    0.42838   -0.00000   -0.42961    5    diag
    7      0.131D-04      0.262D-05      -115.72268218    186.897915    0.42834   -0.00000   -0.42960    6    diag
    8      0.451D-05      0.153D-06      -115.72268218    186.897944    0.42834   -0.00000   -0.42959    7    orth
    9      0.232D-06      0.289D-07      -115.72268218    186.897940    0.42834   -0.00000   -0.42959    8    diag
   10      0.586D-07      0.372D-08      -115.72268218    186.897940    0.42834   -0.00000   -0.42959    9    diag
   11      0.695D-08      0.504D-09      -115.72268218    186.897940    0.42834   -0.00000   -0.42959    9    diag
   12      0.771D-09      0.567D-10      -115.72268218    186.897940    0.42834   -0.00000   -0.42959    9    diag
   13      0.973D-10      0.811D-11      -115.72268218    186.897940    0.42834   -0.00000   -0.42959    0    orth

 Final occupancy:   9

 !RKS STATE 1.1 Energy               -115.722682180859
 Nuclear energy                        40.17123105
 One-electron energy                 -236.79386961
 Two-electron energy                   93.44897005
 SCF exchange energy                  -14.83045481     Factor= 0.2000
 Density functional                   -12.54901368     B88=-14.87092544 DIRAC=-13.40879777 LYP= -0.59546874 VWN3= -1.51007294
 Virial quotient                       -1.00669433
 !RKS STATE 1.1 Dipole moment           0.42834133    -0.00000000    -0.42959383
 Dipole moment /Debye                   1.08866375    -0.00000000    -1.09184709

 Orbital energies:

         1.1          2.1          3.1          4.1          5.1          6.1          7.1          8.1          9.1         10.1
    -19.132540   -10.227260    -1.012503    -0.674317    -0.501090    -0.430423    -0.417390    -0.328931    -0.265216     0.054213

        11.1
      0.091037

 HOMO      9.1    -0.265216 =      -7.2169eV
 LUMO     10.1     0.054213 =       1.4752eV
 LUMO-HOMO         0.319429 =       8.6921eV


 **********************************************************************************************************************************
 DATASETS  * FILE   NREC   LENGTH (MB)   RECORD NAMES
              1      19       19.24       500      610      700      900      950      970     1000      129      960     1100   
                                          VAR    BASINP    GEOM    SYMINP    ZMAT    AOBASIS   BASIS     P2S    ABASIS      S 
                                         1400     1410     1200     1210     1080     1600     1650     1700     1800   
                                           T        V       H0       H01     AOSYM     SMH    MOLCAS    OPER     GRID   

              2       5        0.50       700     1000      520     1800     2100   
                                         GEOM     BASIS   MCVARS    GRID      RKS  

 PROGRAMS   *        TOTAL       RKS       RKS       INT
 CPU TIMES  *         3.15      0.48      0.27      0.25
 REAL TIME  *         4.63 SEC
 DISK USED  *       173.73 MB      
 SF USED    *         0.01 MB      
 GA USED    *         0.74 MB       (max)       0.74 MB       (current)
 **********************************************************************************************************************************

 ITER.   ENERGY(OLD)    ENERGY(NEW)      DE          GRADMAX     GRADNORM    GRADRMS     STEPMAX     STEPLEN     STEPRMS   CPU-time
   1  -115.72109378  -115.72268218    -0.00158840  0.02959214  0.03862209  0.00321851  0.17945594  0.19255326  0.07860954      2.50

 Current geometry (xyz format, in Angstrom)

    6
 RKS-SCF000/CC-PVDZ  ENERGY=-115.72268218
 H         -0.0472776777        0.0000000000        0.0119410491
 O         -0.0208010057       -0.0000000000        0.9857178529
 C          1.3397804615        0.0000000000        1.3611918728
 H          1.3734500758       -0.0000000000        2.4645584377
 H          1.9015065730        0.8957978719        1.0192543938
 H          1.9015065730       -0.8957978719        1.0192543938

 **********************************************************************************************************************************
1PROGRAM * ALASKA (Gradient of the energy)     Author: R. Lindh

 Orbitals from record         2100.2

 Number of closed-shell orbitals:  9 (  9 )
 Number of occupied orbitals:      9 (  9 )

 Number of electrons= 18     Singlet     Space symmetry=1      Wavefunction type: CLOSED          

 Gradient contributions of integration grid neglected (GRIDGRAD=0).

 DFT GRADIENT, EXFAC=     0.200

 RKS GRADIENT FOR STATE 1.1

 Atom          dE/dx               dE/dy               dE/dz

   1         0.000952458         0.000000000        -0.006012178
   2         0.000177835         0.000000000         0.008160396
   3        -0.005678886         0.000000000        -0.004805626
   4         0.000650576         0.000000000         0.001336940
   5         0.001933953         0.000310292         0.000650032
   6         0.001933953        -0.000310292         0.000650032

 Nuclear force contribution to virial =         0.013601969
 Reading points  1 to  2 from record 700.2,  wavefunction type=RKS-SCF000      

 Making model hessian for cartesian coordinates
 BFGS update of hessian using  1 points

 Entering Rational Function Geometry Optimization

 Optimization point  2

 Variable                      Last           Current        Next           Gradient       Hessian
 E(RKS-SCF000) / Hartree  -115.72109378  -115.72268218  -115.72277730
 GX1 / ANGSTROM              0.00000000    -0.04727768    -0.04697247     0.00179988    -0.00000000
 GY1 / ANGSTROM              0.00000000     0.00000000    -0.00000000     0.00000000    -0.00000000
 GZ1 / ANGSTROM              0.00000000     0.01194105     0.01394816    -0.01136137    -0.00000000
 GX2 / ANGSTROM              0.00000000    -0.02080101    -0.01645925     0.00033606    -0.00000000
 GY2 / ANGSTROM              0.00000000    -0.00000000    -0.00000000     0.00000000    -0.00000000
 GZ2 / ANGSTROM              0.99200000     0.98571785     0.98221056     0.01542091    -0.00000000
 GX3 / ANGSTROM              1.34384400     1.33978046     1.34412459    -0.01073154     0.11073945
 GY3 / ANGSTROM              0.00000000     0.00000000     0.00000000     0.00000000     0.19853825
 GZ3 / ANGSTROM              1.37734100     1.36119187     1.36565389    -0.00908132     0.27860098
 GX4 / ANGSTROM              1.39995100     1.37345008     1.37191577     0.00122941     0.31528188
 GY4 / ANGSTROM              0.00000000    -0.00000000     0.00000000     0.00000000     0.40173180
 GZ4 / ANGSTROM              2.48492100     2.46455844     2.46741688     0.00252645     0.41701345
 GX5 / ANGSTROM              1.85218500     1.90150657     1.89777818     0.00365464     0.69483771
 GY5 / ANGSTROM              0.91576300     0.89579787     0.89660527     0.00058637     1.84656990
 GZ5 / ANGSTROM              1.00382800     1.01925439     1.01634426     0.00122838     4.04472998
 GX6 / ANGSTROM              1.85218500     1.90150657     1.89777818     0.00365464     4.05218398
 GY6 / ANGSTROM             -0.91576300    -0.89579787    -0.89660527    -0.00058637     4.74696654
 GZ6 / ANGSTROM              1.00382800     1.01925439     1.01634426     0.00122838     5.78549931
 Convergence:                0.00000000  (line search)     0.02159775     0.01302880  (total)

 Geometry written to block  3 of record 700


 Recomputing integrals since geometry changed

1PROGRAM * SEWARD (Integral evaluation for generally contracted gaussian basis sets)     Author: Roland Lindh, 1990

 Geometry written to block  3 of record 700


 Point group  C1  



 ATOMIC COORDINATES

 NR  ATOM    CHARGE       X              Y              Z

   1  H       1.00   -0.088765097   -0.000000000    0.026358196
   2  O       8.00   -0.031103470   -0.000000000    1.856108950
   3  C       6.00    2.540027361    0.000000000    2.580711828
   4  H       1.00    2.592545069    0.000000000    4.662742142
   5  H       1.00    3.586280996    1.694338399    1.920612296
   6  H       1.00    3.586280996   -1.694338399    1.920612296

 Bond lengths in Bohr (Angstrom)

 1-2  1.830659085  2-3  2.671284912  3-4  2.082692569  3-5  2.097894342  3-6  2.097894342
     ( 0.968743069)     ( 1.413583099)     ( 1.102113445)     ( 1.110157877)     ( 1.110157877)

 Bond angles

  1-2-3  107.54402427   2-3-4  107.18397623   2-3-5  113.24523048   2-3-6  113.24523048

  4-3-5  107.57613282   4-3-6  107.57613282   5-3-6  107.73151750

 NUCLEAR CHARGE:                   18
 NUMBER OF PRIMITIVE AOS:          82
 NUMBER OF SYMMETRY AOS:           80
 NUMBER OF CONTRACTIONS:           48   (  48A   )
 NUMBER OF CORE ORBITALS:           2   (   2A   )
 NUMBER OF VALENCE ORBITALS:       12   (  12A   )


 NUCLEAR REPULSION ENERGY   40.18629384


 Eigenvalues of metric

         1 0.980E-02 0.176E-01 0.382E-01 0.390E-01 0.391E-01 0.488E-01 0.505E-01 0.535E-01


 Contracted 2-electron integrals neglected if value below      1.0D-14
 AO integral compression algorithm  1   Integral accuracy      1.0D-14

     6.291 MB (compressed) written to integral file ( 92.6%)

     Node minimum: 0.786 MB, node maximum: 1.049 MB


 NUMBER OF SORTED TWO-ELECTRON INTEGRALS:      99372.     BUFFER LENGTH:  32768
 NUMBER OF SEGMENTS:   1  SEGMENT LENGTH:      99372      RECORD LENGTH: 524288

 Memory used in sort:       0.66 MW

 SORT1 READ      839336. AND WROTE       80967. INTEGRALS IN      1 RECORDS. CPU TIME:     0.02 SEC, REAL TIME:     0.02 SEC
 SORT2 READ      555544. AND WROTE      692076. INTEGRALS IN     21 RECORDS. CPU TIME:     0.00 SEC, REAL TIME:     0.01 SEC

 Node minimum:       98364.  Node maximum:       99372. integrals

 OPERATOR DM      FOR CENTER  0  COORDINATES:    0.000000    0.000000    0.000000
 Density functional group B3LYP3=B88+DIRAC+LYP+VWN3
 Functional: B88(Automatically generated (new) B88)                            Gradient terms: 1
 Functional: DIRAC(Automatically generated (new) DIRAC)                        Gradient terms: 0
 Functional: LYP(Automatically generated (new) LYP)                            Gradient terms: 1
 Functional: VWN3(Automatically generated (new) VWN3)                          Gradient terms: 0
 Use grid at  1800.2
 

 Exact exchange will be calculated, factor:  0.2000

 Functional: B88                       Factor:  0.7200
 Functional: DIRAC                     Factor:  0.0800
 Functional: LYP                       Factor:  0.8100
 Functional: VWN3                      Factor:  0.1900
 
 Generated new metagrid on record  1800.2 with target accuracy 1.0D-06 and 20704 points in CPU time    0.1
 Computed new grid on record 1800.1 in CPU time    0.1
   42186 words reserved for DFT integration

 PROGRAM * RKS-SCF (Restricted closed shell Kohn-Sham)     Authors: W. Meyer, H.-J. Werner, P.J. Knowles, 1993

 NUMBER OF ELECTRONS:       9+    9-    SPACE SYMMETRY=1    SPIN SYMMETRY: Singlet 
 CONVERGENCE THRESHOLDS:    1.00E-10 (Density)    1.00E-10 (Energy)
 MAX. NUMBER OF ITERATIONS:      300
 INTERPOLATION TYPE:            DIIS
 INTERPOLATION STEPS:              2 (START)      1 (STEP)
 LEVEL SHIFTS:                  0.00 (CLOSED)  0.00 (OPEN) 

 Number of closed-shell orbitals:    9 (   9 )


 Use fine grid record 1800.2 for energy threshold  1.0D-06
 Molecular orbitals read from record     2100.2  Type=RKS/CANONICAL (state 1.1)

 Molecular orbital dump at record        2100.2

 ITERATION    DDIFF          GRAD             ENERGY        2-EL.EN.            DIPOLE MOMENTS         DIIS   ORB.
    1      0.000D+00      0.000D+00      -115.72278068    186.924468    0.42852   -0.00000   -0.42563    0    start
    2      0.000D+00      0.240D-03      -115.72281030    186.950995    0.43295   -0.00000   -0.42415    1    diag
    3      0.798D-03      0.427D-04      -115.72281060    186.929656    0.43106   -0.00000   -0.42563    2    diag
    4      0.108D-03      0.318D-04      -115.72281088    186.943916    0.43211   -0.00000   -0.42548    3    diag
    5      0.570D-04      0.105D-04      -115.72281091    186.940763    0.43187   -0.00000   -0.42523    4    diag
    6      0.138D-04      0.187D-05      -115.72281091    186.940765    0.43192   -0.00000   -0.42526    5    diag
    7      0.341D-05      0.764D-06      -115.72281091    186.940850    0.43192   -0.00000   -0.42527    6    diag
    8      0.113D-05      0.513D-07      -115.72281091    186.940843    0.43191   -0.00000   -0.42527    7    orth
    9      0.905D-07      0.692D-08      -115.72281091    186.940842    0.43191   -0.00000   -0.42527    8    diag
   10      0.115D-07      0.978D-09      -115.72281091    186.940842    0.43191   -0.00000   -0.42527    9    diag
   11      0.160D-08      0.135D-09      -115.72281091    186.940842    0.43191   -0.00000   -0.42527    9    diag
   12      0.194D-09      0.132D-10      -115.72281091    186.940842    0.43191   -0.00000   -0.42527    9    diag
   13      0.254D-10      0.193D-11      -115.72281091    186.940842    0.43191   -0.00000   -0.42527    0    orth

 Final occupancy:   9

 !RKS STATE 1.1 Energy               -115.722810910655
 Nuclear energy                        40.18629384
 One-electron energy                 -236.82778244
 Two-electron energy                   93.47042079
 SCF exchange energy                  -14.83445338     Factor= 0.2000
 Density functional                   -12.55174310     B88=-14.87420912 DIRAC=-13.41189954 LYP= -0.59556493 VWN3= -1.51027886
 Virial quotient                       -1.00660126
 !RKS STATE 1.1 Dipole moment           0.43191489    -0.00000000    -0.42526785
 Dipole moment /Debye                   1.09774624    -0.00000000    -1.08085227

 Orbital energies:

         1.1          2.1          3.1          4.1          5.1          6.1          7.1          8.1          9.1         10.1
    -19.130787   -10.227130    -1.011845    -0.674977    -0.500769    -0.430805    -0.417830    -0.328304    -0.264503     0.054921

        11.1
      0.091928

 HOMO      9.1    -0.264503 =      -7.1975eV
 LUMO     10.1     0.054921 =       1.4945eV
 LUMO-HOMO         0.319424 =       8.6920eV


 **********************************************************************************************************************************
 DATASETS  * FILE   NREC   LENGTH (MB)   RECORD NAMES
              1      19       19.24       500      610      700      900      950      970     1000      129      960     1100   
                                          VAR    BASINP    GEOM    SYMINP    ZMAT    AOBASIS   BASIS     P2S    ABASIS      S 
                                         1400     1410     1200     1210     1080     1600     1650     1700     1800   
                                           T        V       H0       H01     AOSYM     SMH    MOLCAS    OPER     GRID   

              2       5        0.50       700     1000      520     1800     2100   
                                         GEOM     BASIS   MCVARS    GRID      RKS  

 PROGRAMS   *        TOTAL       RKS       RKS       INT
 CPU TIMES  *         6.10      0.48      0.27      0.25
 REAL TIME  *         7.63 SEC
 DISK USED  *       173.73 MB      
 SF USED    *         0.01 MB      
 GA USED    *         0.74 MB       (max)       0.73 MB       (current)
 **********************************************************************************************************************************
   2  -115.72268218  -115.72281091    -0.00012873  0.01052330  0.01302878  0.00108573  0.01523513  0.02159775  0.00881725      5.45

 Current geometry (xyz format, in Angstrom)

    6
 RKS-SCF000/CC-PVDZ  ENERGY=-115.72281091
 H         -0.0469724664       -0.0000000000        0.0139481567
 O         -0.0164592473       -0.0000000000        0.9822105575
 C          1.3441245946        0.0000000000        1.3656538874
 H          1.3719157687        0.0000000000        2.4674168818
 H          1.8977781752        0.8966052685        1.0163442583
 H          1.8977781752       -0.8966052685        1.0163442583

 **********************************************************************************************************************************
1PROGRAM * ALASKA (Gradient of the energy)     Author: R. Lindh

 Orbitals from record         2100.2

 Number of closed-shell orbitals:  9 (  9 )
 Number of occupied orbitals:      9 (  9 )

 Number of electrons= 18     Singlet     Space symmetry=1      Wavefunction type: CLOSED          

 Gradient contributions of integration grid neglected (GRIDGRAD=0).

 DFT GRADIENT, EXFAC=     0.200

 RKS GRADIENT FOR STATE 1.1

 Atom          dE/dx               dE/dy               dE/dz

   1         0.000017729         0.000000000        -0.001171584
   2         0.000951339         0.000000000         0.001491669
   3        -0.002495787         0.000000000        -0.000637845
   4         0.000265247         0.000000000         0.000611385
   5         0.000628887         0.000212903        -0.000148055
   6         0.000628887        -0.000212903        -0.000148055

 Nuclear force contribution to virial =         0.002923072
 Reading points  1 to  3 from record 700.2,  wavefunction type=RKS-SCF000      

 Making model hessian for cartesian coordinates
 BFGS update of hessian using  2 points

 Entering Rational Function Geometry Optimization

 Optimization point  3

 Variable                      Last           Current        Next           Gradient       Hessian
 E(RKS-SCF000) / Hartree  -115.72268218  -115.72281091  -115.72281883
 GX1 / ANGSTROM             -0.04727768    -0.04697247    -0.04681474     0.00003350    -0.00000000
 GY1 / ANGSTROM              0.00000000    -0.00000000    -0.00000000     0.00000000    -0.00000000
 GZ1 / ANGSTROM              0.01194105     0.01394816     0.01495933    -0.00221397    -0.00000000
 GX2 / ANGSTROM             -0.02080101    -0.01645925    -0.01551150     0.00179777     0.00000000
 GY2 / ANGSTROM             -0.00000000    -0.00000000    -0.00000000     0.00000000     0.00000000
 GZ2 / ANGSTROM              0.98571785     0.98221056     0.98171538     0.00281885     0.00000000
 GX3 / ANGSTROM              1.33978046     1.34412459     1.34632601    -0.00471635     0.11199297
 GY3 / ANGSTROM              0.00000000     0.00000000     0.00000000     0.00000000     0.19910594
 GZ3 / ANGSTROM              1.36119187     1.36565389     1.36560687    -0.00120535     0.28229784
 GX4 / ANGSTROM              1.37345008     1.37191577     1.37117104     0.00050124     0.31940677
 GY4 / ANGSTROM             -0.00000000     0.00000000     0.00000000     0.00000000     0.40269587
 GZ4 / ANGSTROM              2.46455844     2.46741688     2.46648424     0.00115535     0.41696591
 GX5 / ANGSTROM              1.90150657     1.89777818     1.89649709     0.00118842     0.70408600
 GY5 / ANGSTROM              0.89579787     0.89660527     0.89790566     0.00040233     1.84624624
 GZ5 / ANGSTROM              1.01925439     1.01634426     1.01657609    -0.00027978     4.07342970
 GX6 / ANGSTROM              1.90150657     1.89777818     1.89649709     0.00118842     4.08515096
 GY6 / ANGSTROM             -0.89579787    -0.89660527    -0.89790566    -0.00040233     4.76714143
 GZ6 / ANGSTROM              1.01925439     1.01634426     1.01657609    -0.00027978     5.79639462
 Convergence:                0.00000000  (line search)     0.00737611     0.00353673  (total)

 Geometry written to block  4 of record 700


 Recomputing integrals since geometry changed

1PROGRAM * SEWARD (Integral evaluation for generally contracted gaussian basis sets)     Author: Roland Lindh, 1990

 Geometry written to block  4 of record 700


 Point group  C1  



 ATOMIC COORDINATES

 NR  ATOM    CHARGE       X              Y              Z

   1  H       1.00   -0.088467039   -0.000000000    0.028269036
   2  O       8.00   -0.029312482   -0.000000000    1.855173208
   3  C       6.00    2.544187424    0.000000000    2.580622984
   4  H       1.00    2.591137744    0.000000000    4.660979706
   5  H       1.00    3.583860104    1.696795787    1.921050388
   6  H       1.00    3.583860104   -1.696795787    1.921050388

 Bond lengths in Bohr (Angstrom)

 1-2  1.827861624  2-3  2.673794896  3-4  2.080886451  3-5  2.096442518  3-6  2.096442518
     ( 0.967262716)     ( 1.414911326)     ( 1.101157689)     ( 1.109389605)     ( 1.109389605)

 Bond angles

  1-2-3  107.59730546   2-3-4  107.03558942   2-3-5  113.07646373   2-3-6  113.07646373

  4-3-5  107.65866752   4-3-6  107.65866752   5-3-6  108.06867234

 NUCLEAR CHARGE:                   18
 NUMBER OF PRIMITIVE AOS:          82
 NUMBER OF SYMMETRY AOS:           80
 NUMBER OF CONTRACTIONS:           48   (  48A   )
 NUMBER OF CORE ORBITALS:           2   (   2A   )
 NUMBER OF VALENCE ORBITALS:       12   (  12A   )


 NUCLEAR REPULSION ENERGY   40.18628414


 Eigenvalues of metric

         1 0.979E-02 0.177E-01 0.381E-01 0.390E-01 0.390E-01 0.486E-01 0.504E-01 0.533E-01


 Contracted 2-electron integrals neglected if value below      1.0D-14
 AO integral compression algorithm  1   Integral accuracy      1.0D-14

     6.291 MB (compressed) written to integral file ( 92.6%)

     Node minimum: 0.786 MB, node maximum: 1.049 MB


 NUMBER OF SORTED TWO-ELECTRON INTEGRALS:      99372.     BUFFER LENGTH:  32768
 NUMBER OF SEGMENTS:   1  SEGMENT LENGTH:      99372      RECORD LENGTH: 524288

 Memory used in sort:       0.66 MW

 SORT1 READ      839336. AND WROTE       80967. INTEGRALS IN      1 RECORDS. CPU TIME:     0.02 SEC, REAL TIME:     0.02 SEC
 SORT2 READ      555544. AND WROTE      692076. INTEGRALS IN     21 RECORDS. CPU TIME:     0.00 SEC, REAL TIME:     0.01 SEC

 Node minimum:       98364.  Node maximum:       99372. integrals

 OPERATOR DM      FOR CENTER  0  COORDINATES:    0.000000    0.000000    0.000000
 Density functional group B3LYP3=B88+DIRAC+LYP+VWN3
 Functional: B88(Automatically generated (new) B88)                            Gradient terms: 1
 Functional: DIRAC(Automatically generated (new) DIRAC)                        Gradient terms: 0
 Functional: LYP(Automatically generated (new) LYP)                            Gradient terms: 1
 Functional: VWN3(Automatically generated (new) VWN3)                          Gradient terms: 0
 Use grid at  1800.2
 

 Exact exchange will be calculated, factor:  0.2000

 Functional: B88                       Factor:  0.7200
 Functional: DIRAC                     Factor:  0.0800
 Functional: LYP                       Factor:  0.8100
 Functional: VWN3                      Factor:  0.1900
 
 Generated new metagrid on record  1800.2 with target accuracy 1.0D-06 and 20872 points in CPU time    0.1
 Computed new grid on record 1800.1 in CPU time    0.1
   42186 words reserved for DFT integration

 PROGRAM * RKS-SCF (Restricted closed shell Kohn-Sham)     Authors: W. Meyer, H.-J. Werner, P.J. Knowles, 1993

 NUMBER OF ELECTRONS:       9+    9-    SPACE SYMMETRY=1    SPIN SYMMETRY: Singlet 
 CONVERGENCE THRESHOLDS:    1.00E-10 (Density)    1.00E-10 (Energy)
 MAX. NUMBER OF ITERATIONS:      300
 INTERPOLATION TYPE:            DIIS
 INTERPOLATION STEPS:              2 (START)      1 (STEP)
 LEVEL SHIFTS:                  0.00 (CLOSED)  0.00 (OPEN) 

 Number of closed-shell orbitals:    9 (   9 )


 Use fine grid record 1800.2 for energy threshold  1.0D-06
 Molecular orbitals read from record     2100.2  Type=RKS/CANONICAL (state 1.1)

 Molecular orbital dump at record        2100.2

 ITERATION    DDIFF          GRAD             ENERGY        2-EL.EN.            DIPOLE MOMENTS         DIIS   ORB.
    1      0.000D+00      0.000D+00      -115.72280339    186.940734    0.43272   -0.00000   -0.42423    0    start
    2      0.000D+00      0.758D-04      -115.72280636    186.947364    0.43414    0.00000   -0.42356    1    diag
    3      0.264D-03      0.182D-04      -115.72280637    186.945287    0.43436    0.00000   -0.42407    2    diag
    4      0.536D-04      0.185D-04      -115.72280647    186.945122    0.43402    0.00000   -0.42393    3    diag
    5      0.279D-04      0.343D-05      -115.72280647    186.946133    0.43415    0.00000   -0.42391    4    diag
    6      0.476D-05      0.927D-06      -115.72280647    186.945733    0.43413    0.00000   -0.42390    5    diag
    7      0.163D-05      0.215D-06      -115.72280647    186.945807    0.43413    0.00000   -0.42390    6    diag
    8      0.319D-06      0.151D-07      -115.72280647    186.945805    0.43413    0.00000   -0.42390    7    orth
    9      0.280D-07      0.248D-08      -115.72280647    186.945804    0.43413    0.00000   -0.42390    8    diag
   10      0.434D-08      0.302D-09      -115.72280647    186.945804    0.43413    0.00000   -0.42390    9    diag
   11      0.567D-09      0.475D-10      -115.72280647    186.945804    0.43413    0.00000   -0.42390    9    diag
   12      0.670D-10      0.346D-11      -115.72280647    186.945804    0.43413    0.00000   -0.42390    0    orth

 Final occupancy:   9

 !RKS STATE 1.1 Energy               -115.722806474288
 Nuclear energy                        40.18628414
 One-electron energy                 -236.82934940
 Two-electron energy                   93.47290221
 SCF exchange energy                  -14.83574817     Factor= 0.2000
 Density functional                   -12.55264342     B88=-14.87529335 DIRAC=-13.41290957 LYP= -0.59559746 VWN3= -1.51034475
 Virial quotient                       -1.00656602
 !RKS STATE 1.1 Dipole moment           0.43413265     0.00000000    -0.42390343
 Dipole moment /Debye                   1.10338285     0.00000000    -1.07738448

 Orbital energies:

         1.1          2.1          3.1          4.1          5.1          6.1          7.1          8.1          9.1         10.1
    -19.130292   -10.226951    -1.011467    -0.675236    -0.500402    -0.431230    -0.417678    -0.328143    -0.264436     0.055189

        11.1
      0.092237

 HOMO      9.1    -0.264436 =      -7.1957eV
 LUMO     10.1     0.055189 =       1.5018eV
 LUMO-HOMO         0.319625 =       8.6975eV


 **********************************************************************************************************************************
 DATASETS  * FILE   NREC   LENGTH (MB)   RECORD NAMES
              1      19       19.24       500      610      700      900      950      970     1000      129      960     1100   
                                          VAR    BASINP    GEOM    SYMINP    ZMAT    AOBASIS   BASIS     P2S    ABASIS      S 
                                         1400     1410     1200     1210     1080     1600     1650     1700     1800   
                                           T        V       H0       H01     AOSYM     SMH    MOLCAS    OPER     GRID   

              2       5        0.50       700     1000      520     1800     2100   
                                         GEOM     BASIS   MCVARS    GRID      RKS  

 PROGRAMS   *        TOTAL       RKS       RKS       INT
 CPU TIMES  *         9.16      0.58      0.27      0.25
 REAL TIME  *        10.74 SEC
 DISK USED  *       173.73 MB      
 SF USED    *         0.01 MB      
 GA USED    *         0.74 MB       (max)       0.73 MB       (current)
 **********************************************************************************************************************************
 Freezing grid
   3  -115.72281091  -115.72280647     0.00000444  0.00336884  0.00353673  0.00029473  0.00544982  0.00737611  0.00301128      8.51

 Current geometry (xyz format, in Angstrom)

    6
 RKS-SCF000/CC-PVDZ  ENERGY=-115.72280647
 H         -0.0468147409       -0.0000000000        0.0149593296
 O         -0.0155114975       -0.0000000000        0.9817153839
 C          1.3463260053        0.0000000000        1.3656068729
 H          1.3711710444        0.0000000000        2.4664842408
 H          1.8964970943        0.8979056622        1.0165760864
 H          1.8964970943       -0.8979056622        1.0165760864

 **********************************************************************************************************************************
1PROGRAM * ALASKA (Gradient of the energy)     Author: R. Lindh

 Orbitals from record         2100.2

 Number of closed-shell orbitals:  9 (  9 )
 Number of occupied orbitals:      9 (  9 )

 Number of electrons= 18     Singlet     Space symmetry=1      Wavefunction type: CLOSED          

 Gradient contributions of integration grid neglected (GRIDGRAD=0).

 DFT GRADIENT, EXFAC=     0.200

 RKS GRADIENT FOR STATE 1.1

 Atom          dE/dx               dE/dy               dE/dz

   1        -0.000055960         0.000000000         0.000252010
   2         0.000620924         0.000000000        -0.000114314
   3        -0.000727749         0.000000000        -0.000116011
   4         0.000004197         0.000000000         0.000028294
   5         0.000065186         0.000203689        -0.000036986
   6         0.000065186        -0.000203689        -0.000036986

 Nuclear force contribution to virial =        -0.001209989
 Reading points  1 to  4 from record 700.2,  wavefunction type=RKS-SCF000      

 Making model hessian for cartesian coordinates
 BFGS update of hessian using  3 points

 Entering Rational Function Geometry Optimization

 Optimization point  4

 Variable                      Last           Current        Next           Gradient       Hessian
 E(RKS-SCF000) / Hartree  -115.72281091  -115.72280647  -115.72280702
 GX1 / ANGSTROM             -0.04697247    -0.04681474    -0.04668454    -0.00010575    -0.00000000
 GY1 / ANGSTROM             -0.00000000    -0.00000000    -0.00000000     0.00000000    -0.00000000
 GZ1 / ANGSTROM              0.01394816     0.01495933     0.01483999     0.00047623    -0.00000000
 GX2 / ANGSTROM             -0.01645925    -0.01551150    -0.01586264     0.00117338     0.00000000
 GY2 / ANGSTROM             -0.00000000    -0.00000000    -0.00000000     0.00000000     0.00000000
 GZ2 / ANGSTROM              0.98221056     0.98171538     0.98168457    -0.00021602     0.00000000
 GX3 / ANGSTROM              1.34412459     1.34632601     1.34653162    -0.00137525     0.11231983
 GY3 / ANGSTROM              0.00000000     0.00000000     0.00000000     0.00000000     0.19926993
 GZ3 / ANGSTROM              1.36565389     1.36560687     1.36587651    -0.00021923     0.28417034
 GX4 / ANGSTROM              1.37191577     1.37117104     1.37124470     0.00000793     0.32118539
 GY4 / ANGSTROM              0.00000000     0.00000000    -0.00000000     0.00000000     0.40380848
 GZ4 / ANGSTROM              2.46741688     2.46648424     2.46664052     0.00005347     0.41750529
 GX5 / ANGSTROM              1.89777818     1.89649709     1.89646793     0.00012318     0.70607774
 GY5 / ANGSTROM              0.89660527     0.89790566     0.89751000     0.00038492     1.84708455
 GZ5 / ANGSTROM              1.01634426     1.01657609     1.01643821    -0.00006989     4.09271766
 GX6 / ANGSTROM              1.89777818     1.89649709     1.89646793     0.00012318     4.09624918
 GY6 / ANGSTROM             -0.89660527    -0.89790566    -0.89751000    -0.00038492     4.77215471
 GZ6 / ANGSTROM              1.01634426     1.01657609     1.01643821    -0.00006989     5.79120998
 Convergence:                0.00000000  (line search)     0.00152717     0.00105041  (total)

 Geometry written to block  5 of record 700


 Recomputing integrals since geometry changed

1PROGRAM * SEWARD (Integral evaluation for generally contracted gaussian basis sets)     Author: Roland Lindh, 1990

 Geometry written to block  5 of record 700


 Point group  C1  



 ATOMIC COORDINATES

 NR  ATOM    CHARGE       X              Y              Z

   1  H       1.00   -0.088220995   -0.000000000    0.028043519
   2  O       8.00   -0.029976042   -0.000000000    1.855114969
   3  C       6.00    2.544575984    0.000000000    2.581132523
   4  H       1.00    2.591276934   -0.000000000    4.661275036
   5  H       1.00    3.583804988    1.696048091    1.920789831
   6  H       1.00    3.583804988   -1.696048091    1.920789831

 Bond lengths in Bohr (Angstrom)

 1-2  1.827999605  2-3  2.674961611  3-4  2.080666685  3-5  2.095859853  3-6  2.095859853
     ( 0.967335733)     ( 1.415528725)     ( 1.101041393)     ( 1.109081271)     ( 1.109081271)

 Bond angles

  1-2-3  107.57423149   2-3-4  107.03444821   2-3-5  113.06169217   2-3-6  113.06169217

  4-3-5  107.68966860   4-3-6  107.68966860   5-3-6  108.04297214

 NUCLEAR CHARGE:                   18
 NUMBER OF PRIMITIVE AOS:          82
 NUMBER OF SYMMETRY AOS:           80
 NUMBER OF CONTRACTIONS:           48   (  48A   )
 NUMBER OF CORE ORBITALS:           2   (   2A   )
 NUMBER OF VALENCE ORBITALS:       12   (  12A   )


 NUCLEAR REPULSION ENERGY   40.17924522


 Eigenvalues of metric

         1 0.979E-02 0.177E-01 0.381E-01 0.390E-01 0.390E-01 0.487E-01 0.504E-01 0.533E-01


 Contracted 2-electron integrals neglected if value below      1.0D-14
 AO integral compression algorithm  1   Integral accuracy      1.0D-14

     6.029 MB (compressed) written to integral file ( 96.5%)

     Node minimum: 0.786 MB, node maximum: 1.049 MB


 NUMBER OF SORTED TWO-ELECTRON INTEGRALS:      99372.     BUFFER LENGTH:  32768
 NUMBER OF SEGMENTS:   1  SEGMENT LENGTH:      99372      RECORD LENGTH: 524288

 Memory used in sort:       0.66 MW

 SORT1 READ      839336. AND WROTE       80967. INTEGRALS IN      1 RECORDS. CPU TIME:     0.01 SEC, REAL TIME:     0.02 SEC
 SORT2 READ      555544. AND WROTE      692076. INTEGRALS IN     28 RECORDS. CPU TIME:     0.01 SEC, REAL TIME:     0.01 SEC

 Node minimum:       98364.  Node maximum:       99372. integrals

 OPERATOR DM      FOR CENTER  0  COORDINATES:    0.000000    0.000000    0.000000
 Density functional group B3LYP3=B88+DIRAC+LYP+VWN3
 Functional: B88(Automatically generated (new) B88)                            Gradient terms: 1
 Functional: DIRAC(Automatically generated (new) DIRAC)                        Gradient terms: 0
 Functional: LYP(Automatically generated (new) LYP)                            Gradient terms: 1
 Functional: VWN3(Automatically generated (new) VWN3)                          Gradient terms: 0
 Use grid at  1800.2
 

 Exact exchange will be calculated, factor:  0.2000

 Functional: B88                       Factor:  0.7200
 Functional: DIRAC                     Factor:  0.0800
 Functional: LYP                       Factor:  0.8100
 Functional: VWN3                      Factor:  0.1900
 
 Computed new grid on record 1800.1 in CPU time    0.0
   42186 words reserved for DFT integration

 PROGRAM * RKS-SCF (Restricted closed shell Kohn-Sham)     Authors: W. Meyer, H.-J. Werner, P.J. Knowles, 1993

 NUMBER OF ELECTRONS:       9+    9-    SPACE SYMMETRY=1    SPIN SYMMETRY: Singlet 
 CONVERGENCE THRESHOLDS:    1.00E-10 (Density)    1.00E-10 (Energy)
 MAX. NUMBER OF ITERATIONS:      300
 INTERPOLATION TYPE:            DIIS
 INTERPOLATION STEPS:              2 (START)      1 (STEP)
 LEVEL SHIFTS:                  0.00 (CLOSED)  0.00 (OPEN) 

 Number of closed-shell orbitals:    9 (   9 )


 Use fine grid record 1800.2 for energy threshold  1.0D-06
 Molecular orbitals read from record     2100.2  Type=RKS/CANONICAL (state 1.1)

 Molecular orbital dump at record        2100.2

 ITERATION    DDIFF          GRAD             ENERGY        2-EL.EN.            DIPOLE MOMENTS         DIIS   ORB.
    1      0.000D+00      0.000D+00      -115.72280699    186.933320    0.43481    0.00000   -0.42385    0    start
    2      0.000D+00      0.207D-04      -115.72280722    186.931941    0.43527    0.00000   -0.42365    1    diag
    3      0.623D-04      0.680D-05      -115.72280721    186.934587    0.43552    0.00000   -0.42377    2    diag
    4      0.157D-04      0.728D-05      -115.72280723    186.932998    0.43532    0.00000   -0.42370    3    diag
    5      0.883D-05      0.779D-06      -115.72280723    186.933108    0.43534    0.00000   -0.42371    4    diag
    6      0.815D-06      0.654D-07      -115.72280723    186.933134    0.43534    0.00000   -0.42371    5    diag
    7      0.127D-06      0.328D-07      -115.72280723    186.933124    0.43534    0.00000   -0.42371    6    diag
    8      0.604D-07      0.380D-08      -115.72280723    186.933125    0.43534    0.00000   -0.42371    7    orth
    9      0.714D-08      0.690D-09      -115.72280723    186.933125    0.43534    0.00000   -0.42371    8    diag
   10      0.114D-08      0.831D-10      -115.72280723    186.933125    0.43534    0.00000   -0.42371    9    diag
   11      0.151D-09      0.125D-10      -115.72280723    186.933125    0.43534    0.00000   -0.42371    9    diag
   12      0.246D-10      0.731D-12      -115.72280723    186.933125    0.43534    0.00000   -0.42371    0    orth

 Final occupancy:   9

 !RKS STATE 1.1 Energy               -115.722807226939
 Nuclear energy                        40.17924522
 One-electron energy                 -236.81601057
 Two-electron energy                   93.46656231
 SCF exchange energy                  -14.83569276     Factor= 0.2000
 Density functional                   -12.55260419     B88=-14.87525551 DIRAC=-13.41284135 LYP= -0.59558977 VWN3= -1.51034315
 Virial quotient                       -1.00656790
 !RKS STATE 1.1 Dipole moment           0.43534353     0.00000000    -0.42370605
 Dipole moment /Debye                   1.10646040     0.00000000    -1.07688283

 Orbital energies:

         1.1          2.1          3.1          4.1          5.1          6.1          7.1          8.1          9.1         10.1
    -19.130264   -10.226921    -1.011249    -0.675285    -0.500300    -0.431190    -0.417618    -0.328229    -0.264422     0.055182

        11.1
      0.092242

 HOMO      9.1    -0.264422 =      -7.1953eV
 LUMO     10.1     0.055182 =       1.5016eV
 LUMO-HOMO         0.319604 =       8.6969eV


 **********************************************************************************************************************************
 DATASETS  * FILE   NREC   LENGTH (MB)   RECORD NAMES
              1      19       19.24       500      610      700      900      950      970     1000      129      960     1100   
                                          VAR    BASINP    GEOM    SYMINP    ZMAT    AOBASIS   BASIS     P2S    ABASIS      S 
                                         1400     1410     1200     1210     1080     1600     1650     1700     1800   
                                           T        V       H0       H01     AOSYM     SMH    MOLCAS    OPER     GRID   

              2       5        0.50       700     1000      520     1800     2100   
                                         GEOM     BASIS   MCVARS    GRID      RKS  

 PROGRAMS   *        TOTAL       RKS       RKS       INT
 CPU TIMES  *        12.03      0.41      0.27      0.25
 REAL TIME  *        13.66 SEC
 DISK USED  *       173.73 MB      
 SF USED    *         0.01 MB      
 GA USED    *         0.74 MB       (max)       0.73 MB       (current)
 **********************************************************************************************************************************
   4  -115.72280647  -115.72280723    -0.00000075  0.00081571  0.00105023  0.00008752  0.00091260  0.00152717  0.00062347     11.38

 Current geometry (xyz format, in Angstrom)

    6
 RKS-SCF000/CC-PVDZ  ENERGY=-115.72280723
 H         -0.0466845403       -0.0000000000        0.0148399914
 O         -0.0158626385       -0.0000000000        0.9816845654
 C          1.3465316219        0.0000000000        1.3658765094
 H          1.3712447007       -0.0000000000        2.4666405231
 H          1.8964679281        0.8975099984        1.0164382054
 H          1.8964679281       -0.8975099984        1.0164382054

 **********************************************************************************************************************************
1PROGRAM * ALASKA (Gradient of the energy)     Author: R. Lindh

 Orbitals from record         2100.2

 Number of closed-shell orbitals:  9 (  9 )
 Number of occupied orbitals:      9 (  9 )

 Number of electrons= 18     Singlet     Space symmetry=1      Wavefunction type: CLOSED          

 Gradient contributions of integration grid neglected (GRIDGRAD=0).

 DFT GRADIENT, EXFAC=     0.200

 RKS GRADIENT FOR STATE 1.1

 Atom          dE/dx               dE/dy               dE/dz

   1        -0.000050242         0.000000000         0.000187609
   2         0.000288082         0.000000000        -0.000161499
   3        -0.000276879         0.000000000         0.000029963
   4         0.000002722         0.000000000        -0.000020787
   5         0.000004034         0.000032471        -0.000029610
   6         0.000004034        -0.000032471        -0.000029610

 Nuclear force contribution to virial =        -0.000990269
 Reading points  1 to  5 from record 700.2,  wavefunction type=RKS-SCF000      

 Making model hessian for cartesian coordinates
 BFGS update of hessian using  4 points

 Entering Rational Function Geometry Optimization

 Optimization point  5

 Variable                      Last           Current        Next           Gradient       Hessian
 E(RKS-SCF000) / Hartree  -115.72280647  -115.72280723  -115.72280739
 GX1 / ANGSTROM             -0.04681474    -0.04668454    -0.04655549    -0.00009494    -0.00000000
 GY1 / ANGSTROM             -0.00000000    -0.00000000    -0.00000000     0.00000000    -0.00000000
 GZ1 / ANGSTROM              0.01495933     0.01483999     0.01471725     0.00035453    -0.00000000
 GX2 / ANGSTROM             -0.01551150    -0.01586264    -0.01617590     0.00054440     0.00000000
 GY2 / ANGSTROM             -0.00000000    -0.00000000    -0.00000000     0.00000000     0.00000000
 GZ2 / ANGSTROM              0.98171538     0.98168457     0.98176909    -0.00030519     0.00000000
 GX3 / ANGSTROM              1.34632601     1.34653162     1.34667350    -0.00052323     0.11217979
 GY3 / ANGSTROM              0.00000000     0.00000000     0.00000000     0.00000000     0.19907372
 GZ3 / ANGSTROM              1.36560687     1.36587651     1.36588231     0.00005662     0.28458399
 GX4 / ANGSTROM              1.37117104     1.37124470     1.37134406     0.00000514     0.32126240
 GY4 / ANGSTROM              0.00000000    -0.00000000    -0.00000000     0.00000000     0.40367381
 GZ4 / ANGSTROM              2.46648424     2.46664052     2.46663742    -0.00003928     0.41736301
 GX5 / ANGSTROM              1.89649709     1.89646793     1.89643942     0.00000762     0.70544836
 GY5 / ANGSTROM              0.89790566     0.89751000     0.89745952     0.00006136     1.84737451
 GZ5 / ANGSTROM              1.01657609     1.01643821     1.01645596    -0.00005595     4.09553287
 GX6 / ANGSTROM              1.89649709     1.89646793     1.89643942     0.00000762     4.09869205
 GY6 / ANGSTROM             -0.89790566    -0.89751000    -0.89745952    -0.00006136     4.77070748
 GZ6 / ANGSTROM              1.01657609     1.01643821     1.01645596    -0.00005595     5.78492162
 Convergence:                0.00000000  (line search)     0.00078915     0.00047821  (total)

 Geometry written to block  6 of record 700


 Recomputing integrals since geometry changed

1PROGRAM * SEWARD (Integral evaluation for generally contracted gaussian basis sets)     Author: Roland Lindh, 1990

 Geometry written to block  6 of record 700


 Point group  C1  



 ATOMIC COORDINATES

 NR  ATOM    CHARGE       X              Y              Z

   1  H       1.00   -0.087977132   -0.000000000    0.027811577
   2  O       8.00   -0.030568018   -0.000000000    1.855274701
   3  C       6.00    2.544844089    0.000000000    2.581143493
   4  H       1.00    2.591464687   -0.000000000    4.661269174
   5  H       1.00    3.583751115    1.695952693    1.920823383
   6  H       1.00    3.583751115   -1.695952693    1.920823383

 Bond lengths in Bohr (Angstrom)

 1-2  1.828364645  2-3  2.675749059  3-4  2.080648055  3-5  2.095615898  3-6  2.095615898
     ( 0.967528903)     ( 1.415945424)     ( 1.101031535)     ( 1.108952176)     ( 1.108952176)

 Bond angles

  1-2-3  107.53959644   2-3-4  107.02418202   2-3-5  113.05934258   2-3-6  113.05934258

  4-3-5  107.69251719   4-3-6  107.69251719   5-3-6  108.05246841

 NUCLEAR CHARGE:                   18
 NUMBER OF PRIMITIVE AOS:          82
 NUMBER OF SYMMETRY AOS:           80
 NUMBER OF CONTRACTIONS:           48   (  48A   )
 NUMBER OF CORE ORBITALS:           2   (   2A   )
 NUMBER OF VALENCE ORBITALS:       12   (  12A   )


 NUCLEAR REPULSION ENERGY   40.17308480


 Eigenvalues of metric

         1 0.979E-02 0.177E-01 0.381E-01 0.389E-01 0.390E-01 0.486E-01 0.504E-01 0.533E-01


 Contracted 2-electron integrals neglected if value below      1.0D-14
 AO integral compression algorithm  1   Integral accuracy      1.0D-14

     6.029 MB (compressed) written to integral file ( 96.5%)

     Node minimum: 0.786 MB, node maximum: 1.049 MB


 NUMBER OF SORTED TWO-ELECTRON INTEGRALS:      99372.     BUFFER LENGTH:  32768
 NUMBER OF SEGMENTS:   1  SEGMENT LENGTH:      99372      RECORD LENGTH: 524288

 Memory used in sort:       0.66 MW

 SORT1 READ      839336. AND WROTE       80967. INTEGRALS IN      1 RECORDS. CPU TIME:     0.01 SEC, REAL TIME:     0.02 SEC
 SORT2 READ      555544. AND WROTE      692076. INTEGRALS IN     21 RECORDS. CPU TIME:     0.01 SEC, REAL TIME:     0.00 SEC

 Node minimum:       98364.  Node maximum:       99372. integrals

 OPERATOR DM      FOR CENTER  0  COORDINATES:    0.000000    0.000000    0.000000
 Density functional group B3LYP3=B88+DIRAC+LYP+VWN3
 Functional: B88(Automatically generated (new) B88)                            Gradient terms: 1
 Functional: DIRAC(Automatically generated (new) DIRAC)                        Gradient terms: 0
 Functional: LYP(Automatically generated (new) LYP)                            Gradient terms: 1
 Functional: VWN3(Automatically generated (new) VWN3)                          Gradient terms: 0
 Use grid at  1800.2
 

 Exact exchange will be calculated, factor:  0.2000

 Functional: B88                       Factor:  0.7200
 Functional: DIRAC                     Factor:  0.0800
 Functional: LYP                       Factor:  0.8100
 Functional: VWN3                      Factor:  0.1900
 
 Computed new grid on record 1800.1 in CPU time    0.0
   42186 words reserved for DFT integration

 PROGRAM * RKS-SCF (Restricted closed shell Kohn-Sham)     Authors: W. Meyer, H.-J. Werner, P.J. Knowles, 1993

 NUMBER OF ELECTRONS:       9+    9-    SPACE SYMMETRY=1    SPIN SYMMETRY: Singlet 
 CONVERGENCE THRESHOLDS:    1.00E-10 (Density)    1.00E-10 (Energy)
 MAX. NUMBER OF ITERATIONS:      300
 INTERPOLATION TYPE:            DIIS
 INTERPOLATION STEPS:              2 (START)      1 (STEP)
 LEVEL SHIFTS:                  0.00 (CLOSED)  0.00 (OPEN) 

 Number of closed-shell orbitals:    9 (   9 )


 Use fine grid record 1800.2 for energy threshold  1.0D-06
 Molecular orbitals read from record     2100.2  Type=RKS/CANONICAL (state 1.1)

 Molecular orbital dump at record        2100.2

 ITERATION    DDIFF          GRAD             ENERGY        2-EL.EN.            DIPOLE MOMENTS         DIIS   ORB.
    1      0.000D+00      0.000D+00      -115.72280729    186.922484    0.43583    0.00000   -0.42376    0    start
    2      0.000D+00      0.148D-04      -115.72280740    186.920329    0.43604    0.00000   -0.42362    1    diag
    3      0.432D-04      0.585D-05      -115.72280740    186.923087    0.43628    0.00000   -0.42368    2    diag
    4      0.131D-04      0.580D-05      -115.72280741    186.921671    0.43611    0.00000   -0.42363    3    diag
    5      0.693D-05      0.532D-06      -115.72280741    186.921664    0.43613    0.00000   -0.42363    4    diag
    6      0.693D-06      0.132D-06      -115.72280741    186.921712    0.43613    0.00000   -0.42363    5    diag
    7      0.273D-06      0.339D-07      -115.72280741    186.921706    0.43613    0.00000   -0.42363    6    diag
    8      0.562D-07      0.237D-08      -115.72280741    186.921706    0.43613    0.00000   -0.42363    7    orth
    9      0.483D-08      0.496D-09      -115.72280741    186.921706    0.43613    0.00000   -0.42363    8    diag
   10      0.905D-09      0.837D-10      -115.72280741    186.921706    0.43613    0.00000   -0.42363    9    diag
   11      0.113D-09      0.824D-11      -115.72280741    186.921706    0.43613    0.00000   -0.42363    9    diag
   12      0.132D-10      0.652D-12      -115.72280741    186.921706    0.43613    0.00000   -0.42363    0    orth

 Final occupancy:   9

 !RKS STATE 1.1 Energy               -115.722807410621
 Nuclear energy                        40.17308480
 One-electron energy                 -236.80428662
 Two-electron energy                   93.46085292
 SCF exchange energy                  -14.83548757     Factor= 0.2000
 Density functional                   -12.55245851     B88=-14.87508835 DIRAC=-13.41265715 LYP= -0.59557906 VWN3= -1.51033312
 Virial quotient                       -1.00657344
 !RKS STATE 1.1 Dipole moment           0.43612998     0.00000000    -0.42363389
 Dipole moment /Debye                   1.10845924     0.00000000    -1.07669943

 Orbital energies:

         1.1          2.1          3.1          4.1          5.1          6.1          7.1          8.1          9.1         10.1
    -19.130280   -10.226917    -1.011098    -0.675285    -0.500198    -0.431186    -0.417543    -0.328288    -0.264433     0.055158

        11.1
      0.092225

 HOMO      9.1    -0.264433 =      -7.1956eV
 LUMO     10.1     0.055158 =       1.5009eV
 LUMO-HOMO         0.319590 =       8.6965eV


 **********************************************************************************************************************************
 DATASETS  * FILE   NREC   LENGTH (MB)   RECORD NAMES
              1      19       19.24       500      610      700      900      950      970     1000      129      960     1100   
                                          VAR    BASINP    GEOM    SYMINP    ZMAT    AOBASIS   BASIS     P2S    ABASIS      S 
                                         1400     1410     1200     1210     1080     1600     1650     1700     1800   
                                           T        V       H0       H01     AOSYM     SMH    MOLCAS    OPER     GRID   

              2       5        0.50       700     1000      520     1800     2100   
                                         GEOM     BASIS   MCVARS    GRID      RKS  

 PROGRAMS   *        TOTAL       RKS       RKS       INT
 CPU TIMES  *        14.88      0.40      0.27      0.25
 REAL TIME  *        16.56 SEC
 DISK USED  *       173.73 MB      
 SF USED    *         0.01 MB      
 GA USED    *         0.74 MB       (max)       0.73 MB       (current)
 **********************************************************************************************************************************
   5  -115.72280723  -115.72280741    -0.00000018  0.00043826  0.00047782  0.00003982  0.00056807  0.00078915  0.00032217     14.23

 Current geometry (xyz format, in Angstrom)

    6
 RKS-SCF000/CC-PVDZ  ENERGY=-115.72280741
 H         -0.0465554934       -0.0000000000        0.0147172527
 O         -0.0161758986       -0.0000000000        0.9817690916
 C          1.3466734974        0.0000000000        1.3658823145
 H          1.3713440553       -0.0000000000        2.4666374207
 H          1.8964394196        0.8974595160        1.0164559602
 H          1.8964394196       -0.8974595160        1.0164559602

 **********************************************************************************************************************************
1PROGRAM * ALASKA (Gradient of the energy)     Author: R. Lindh

 Orbitals from record         2100.2

 Number of closed-shell orbitals:  9 (  9 )
 Number of occupied orbitals:      9 (  9 )

 Number of electrons= 18     Singlet     Space symmetry=1      Wavefunction type: CLOSED          

 Gradient contributions of integration grid neglected (GRIDGRAD=0).

 DFT GRADIENT, EXFAC=     0.200

 RKS GRADIENT FOR STATE 1.1

 Atom          dE/dx               dE/dy               dE/dz

   1        -0.000017180         0.000000000         0.000012663
   2         0.000025013         0.000000000        -0.000009188
   3        -0.000001970         0.000000000        -0.000002663
   4         0.000000048         0.000000000        -0.000023669
   5        -0.000017074        -0.000019702        -0.000000518
   6        -0.000017074         0.000019702        -0.000000518

 Nuclear force contribution to virial =        -0.000329230
 Reading points  1 to  6 from record 700.2,  wavefunction type=RKS-SCF000      

 Making model hessian for cartesian coordinates
 BFGS update of hessian using  5 points

 Entering Rational Function Geometry Optimization

 Optimization point  6

 Variable                      Last           Current        Next           Gradient       Hessian
 E(RKS-SCF000) / Hartree  -115.72280723  -115.72280741  -115.72280741
 GX1 / ANGSTROM             -0.04668454    -0.04655549    -0.04652722    -0.00003247    -0.00000000
 GY1 / ANGSTROM             -0.00000000    -0.00000000    -0.00000000     0.00000000    -0.00000000
 GZ1 / ANGSTROM              0.01483999     0.01471725     0.01470858     0.00002393    -0.00000000
 GX2 / ANGSTROM             -0.01586264    -0.01617590    -0.01621441     0.00004727    -0.00000000
 GY2 / ANGSTROM             -0.00000000    -0.00000000    -0.00000000     0.00000000    -0.00000000
 GZ2 / ANGSTROM              0.98168457     0.98176909     0.98177791    -0.00001736    -0.00000000
 GX3 / ANGSTROM              1.34653162     1.34667350     1.34666945    -0.00000372     0.11201125
 GY3 / ANGSTROM              0.00000000     0.00000000     0.00000000     0.00000000     0.19887046
 GZ3 / ANGSTROM              1.36587651     1.36588231     1.36588498    -0.00000503     0.28468604
 GX4 / ANGSTROM              1.37124470     1.37134406     1.37135401     0.00000009     0.32114225
 GY4 / ANGSTROM             -0.00000000    -0.00000000    -0.00000000     0.00000000     0.40349910
 GZ4 / ANGSTROM              2.46664052     2.46663742     2.46666118    -0.00004473     0.41713495
 GX5 / ANGSTROM              1.89646793     1.89643942     1.89644158    -0.00003226     0.70460754
 GY5 / ANGSTROM              0.89751000     0.89745952     0.89747977    -0.00003723     1.84718709
 GZ5 / ANGSTROM              1.01643821     1.01645596     1.01644267    -0.00000098     4.09715576
 GX6 / ANGSTROM              1.89646793     1.89643942     1.89644158    -0.00003226     4.09863180
 GY6 / ANGSTROM             -0.89751000    -0.89745952    -0.89747977     0.00003723     4.76875307
 GZ6 / ANGSTROM              1.01643821     1.01645596     1.01644267    -0.00000098     5.77912374
 Convergence:                0.00000000  (line search)     0.00012401     0.00005565  (total)

 Geometry written to block  7 of record 700


 Recomputing integrals since geometry changed

1PROGRAM * SEWARD (Integral evaluation for generally contracted gaussian basis sets)     Author: Roland Lindh, 1990

 Geometry written to block  7 of record 700


 Point group  C1  



 ATOMIC COORDINATES

 NR  ATOM    CHARGE       X              Y              Z

   1  H       1.00   -0.087923699   -0.000000000    0.027795185
   2  O       8.00   -0.030640803   -0.000000000    1.855291370
   3  C       6.00    2.544836444    0.000000000    2.581148532
   4  H       1.00    2.591483508   -0.000000000    4.661314070
   5  H       1.00    3.583755203    1.695990977    1.920798276
   6  H       1.00    3.583755203   -1.695990977    1.920798276

 Bond lengths in Bohr (Angstrom)

 1-2  1.828393731  2-3  2.675808601  3-4  2.080688495  3-5  2.095662197  3-6  2.095662197
     ( 0.967544295)     ( 1.415976932)     ( 1.101052935)     ( 1.108976676)     ( 1.108976676)

 Bond angles

  1-2-3  107.53499254   2-3-4  107.02426795   2-3-5  113.05919038   2-3-6  113.05919038

  4-3-5  107.69259928   4-3-6  107.69259928   5-3-6  108.05254430

 NUCLEAR CHARGE:                   18
 NUMBER OF PRIMITIVE AOS:          82
 NUMBER OF SYMMETRY AOS:           80
 NUMBER OF CONTRACTIONS:           48   (  48A   )
 NUMBER OF CORE ORBITALS:           2   (   2A   )
 NUMBER OF VALENCE ORBITALS:       12   (  12A   )


 NUCLEAR REPULSION ENERGY   40.17229825


 Eigenvalues of metric

         1 0.979E-02 0.177E-01 0.381E-01 0.389E-01 0.390E-01 0.486E-01 0.504E-01 0.533E-01


 Contracted 2-electron integrals neglected if value below      1.0D-14
 AO integral compression algorithm  1   Integral accuracy      1.0D-14

     6.029 MB (compressed) written to integral file ( 96.5%)

     Node minimum: 0.786 MB, node maximum: 1.049 MB


 NUMBER OF SORTED TWO-ELECTRON INTEGRALS:      99372.     BUFFER LENGTH:  32768
 NUMBER OF SEGMENTS:   1  SEGMENT LENGTH:      99372      RECORD LENGTH: 524288

 Memory used in sort:       0.66 MW

 SORT1 READ      839336. AND WROTE       80967. INTEGRALS IN      1 RECORDS. CPU TIME:     0.01 SEC, REAL TIME:     0.02 SEC
 SORT2 READ      555544. AND WROTE      692076. INTEGRALS IN     21 RECORDS. CPU TIME:     0.01 SEC, REAL TIME:     0.00 SEC

 Node minimum:       98364.  Node maximum:       99372. integrals

 OPERATOR DM      FOR CENTER  0  COORDINATES:    0.000000    0.000000    0.000000
 Density functional group B3LYP3=B88+DIRAC+LYP+VWN3
 Functional: B88(Automatically generated (new) B88)                            Gradient terms: 1
 Functional: DIRAC(Automatically generated (new) DIRAC)                        Gradient terms: 0
 Functional: LYP(Automatically generated (new) LYP)                            Gradient terms: 1
 Functional: VWN3(Automatically generated (new) VWN3)                          Gradient terms: 0
 Use grid at  1800.2
 

 Exact exchange will be calculated, factor:  0.2000

 Functional: B88                       Factor:  0.7200
 Functional: DIRAC                     Factor:  0.0800
 Functional: LYP                       Factor:  0.8100
 Functional: VWN3                      Factor:  0.1900
 
[...]
         4    -0.4811429    -0.0000000    -0.1567971     0.0000000    -0.0372833    -0.0660272    -0.0095783     0.0000000
         5    -0.0000000    -0.2191223    -0.0000000    -0.0370880    -0.0000000     0.0000000     0.0000000     0.0016256
         6    -0.1004163    -0.0000000     0.2413100    -0.0000000    -0.0371875     0.0765380    -0.0039051     0.0000000
         7     0.5917471     0.0000000     0.0505000     0.0000000    -0.2949904    -0.1890404    -0.1699347    -0.0000000
         8    -0.0000000     0.4280498     0.0000000    -0.1929516    -0.0000000    -0.0000000    -0.0000000    -0.3096374
         9    -0.0057440    -0.0000000    -0.3842234     0.0000000    -0.1654288     0.0466670     0.0561235    -0.0000000
        10    -0.2310987    -0.0000000    -0.3129609     0.0000000     0.6627048    -0.2098598    -0.0000210     0.0000000
        11     0.0000000    -0.2539395     0.0000000     0.7069798     0.0000000     0.0000000    -0.0000000    -0.0260802
        12     0.0049134    -0.0000000    -0.1064008     0.0000000    -0.0445666    -0.0017783     0.2491454     0.0000000
        13     0.2400379     0.5584522     0.0199750     0.1625118     0.2654456     0.4804656     0.3137965     0.3229594
        14     0.0323153    -0.1723431     0.1266780     0.0570611    -0.0298858    -0.3918217     0.5563252     0.5418589
        15     0.2195889     0.1027023     0.2248230     0.4484355     0.3861227    -0.2365614    -0.2119438    -0.2319391
        16     0.2400379    -0.5584522     0.0199750    -0.1625118     0.2654456     0.4804656     0.3137965    -0.3229594
        17    -0.0323153    -0.1723431    -0.1266780     0.0570611     0.0298858     0.3918217    -0.5563252     0.5418589
        18     0.2195889    -0.1027023     0.2248230    -0.4484355     0.3861227    -0.2365614    -0.2119438     0.2319391
                  17            18
         1     0.0067629     0.0429612
         2    -0.0000000     0.0000000
         3    -0.0161851     0.9691359
         4    -0.0019889    -0.0172503
         5     0.0000000    -0.0000000
         6     0.0068042    -0.2413437
         7     0.0381955     0.0066386
         8     0.0000000     0.0000000
         9    -0.2936498    -0.0078486
        10     0.0064731    -0.0031281
        11    -0.0000000     0.0000000
        12     0.9292348     0.0155877
        13    -0.0685816     0.0029890
        14    -0.1347665    -0.0009134
        15     0.0367620     0.0019584
        16    -0.0685816     0.0029890
        17     0.1347665     0.0009134
        18     0.0367620     0.0019584

   Low Vibration      Wavenumber
        Nr             [1/cm] 
        1                0.00
        2                0.00
        3                0.00
        4                0.00
        5                0.00
        6                0.00

     Vibration        Wavenumber
        Nr             [1/cm] 
        1              334.22
        2             1060.36
        3             1090.08
        4             1154.58
        5             1377.36
        6             1465.52
        7             1466.99
        8             1484.80
        9             2965.08
       10             3009.12
       11             3101.75
       12             3780.57

 FREQUENCIES * CALCULATION OF NORMAL MODES FOR RKS-SCF


 Atomic Coordinates

  Nr  Atom  Charge       X              Y              Z

   1   H     1.00   -0.087923699   -0.000000000    0.027795185
   2   O     8.00   -0.030640803   -0.000000000    1.855291370
   3   C     6.00    2.544836444    0.000000000    2.581148532
   4   H     1.00    2.591483508   -0.000000000    4.661314070
   5   H     1.00    3.583755203    1.695990977    1.920798276
   6   H     1.00    3.583755203   -1.695990977    1.920798276

 Frequencies dumped to record   5400.2

 Gradient norm at reference geometry: 0.55648D-04
 
 Molecule is not in standard orientation!
 Symmetry information for normal modes not available!

 Normal Modes

                              1 A         2 A         3 A         4 A         5 A  
 Wavenumbers [cm-1]          334.22     1060.36     1090.08     1154.58     1377.36
 Intensities [km/mol]        110.84      103.67       12.65        0.66       27.01
 Intensities [relative]      100.00       93.53       11.42        0.60       24.37
           GX1              0.00000     0.46118    -0.37328    -0.00000     0.72053
           GY1              0.85550     0.00000    -0.00000    -0.00597    -0.00000
           GZ1              0.00000    -0.06475    -0.02409    -0.00000     0.02160
           GX2              0.00000    -0.11686    -0.12029    -0.00000    -0.03920
           GY2             -0.06197    -0.00000    -0.00000    -0.05478    -0.00000
           GZ2              0.00000    -0.03837    -0.02510    -0.00000     0.06033
           GX3              0.00000     0.08724     0.17074     0.00000     0.01457
           GY3              0.00397     0.00000    -0.00000     0.12351     0.00000
           GZ3              0.00000     0.08616    -0.00166    -0.00000    -0.11086
           GX4              0.00000     0.49867    -0.23019    -0.00000    -0.31173
           GY4              0.28375     0.00000     0.00000    -0.25294     0.00000
           GZ4              0.00000     0.07157     0.00489    -0.00000    -0.10598
           GX5              0.02457    -0.07224     0.23909     0.55625     0.01990
           GY5             -0.10146    -0.02870     0.03219    -0.17166     0.12618
           GZ5             -0.21999    -0.21219     0.21872     0.10230     0.22394
           GX6             -0.02457    -0.07224     0.23909    -0.55625     0.01990
           GY6             -0.10146     0.02870    -0.03219    -0.17166    -0.12618
           GZ6              0.21999    -0.21219     0.21872    -0.10230     0.22394

                              6 A         7 A         8 A         9 A        10 A  
 Wavenumbers [cm-1]         1465.52     1466.99     1484.80     2965.08     3009.12
 Intensities [km/mol]          1.72        8.10        4.07       66.69       85.64
 Intensities [relative]        1.55        7.31        3.67       60.17       77.26
           GX1             -0.00000    -0.02664     0.16391    -0.00278    -0.00000
           GY1             -0.00724    -0.00000    -0.00000    -0.00000     0.00474
           GZ1             -0.00000    -0.00842     0.00883    -0.00342     0.00000
           GX2              0.00000    -0.00932    -0.01651    -0.00239     0.00000
           GY2             -0.00927    -0.00000     0.00000     0.00000     0.00041
           GZ2             -0.00000    -0.00930     0.01913    -0.00098     0.00000
           GX3              0.00000    -0.08512    -0.05455    -0.04903    -0.00000
           GY3             -0.05567    -0.00000    -0.00000    -0.00000    -0.08934
           GZ3              0.00000    -0.04773     0.01347     0.01619    -0.00000
           GX4              0.00000     0.66009    -0.20903    -0.00002     0.00000
           GY4              0.70419     0.00000     0.00000    -0.00000    -0.02598
           GZ4              0.00000    -0.04439    -0.00177     0.24816     0.00000
           GX5              0.16187     0.26440     0.47857     0.31256     0.32168
           GY5              0.05684    -0.02977    -0.39028     0.55413     0.53972
           GZ5              0.44667     0.38460    -0.23563    -0.21111    -0.23102
           GX6             -0.16187     0.26440     0.47857     0.31256    -0.32168
           GY6              0.05684     0.02977     0.39028    -0.55413     0.53972
           GZ6             -0.44667     0.38460    -0.23563    -0.21111     0.23102

                             11 A        12 A  
 Wavenumbers [cm-1]         3101.75     3780.57
 Intensities [km/mol]         33.26       19.43
 Intensities [relative]       30.01       17.53
           GX1              0.00674     0.04279
           GY1             -0.00000     0.00000
           GZ1             -0.01612     0.96531
           GX2             -0.00050    -0.00431
           GY2              0.00000    -0.00000
           GZ2              0.00170    -0.06034
           GX3              0.01102     0.00192
           GY3              0.00000     0.00000
           GZ3             -0.08473    -0.00226
           GX4              0.00645    -0.00312
           GY4             -0.00000     0.00000
           GZ4              0.92557     0.01553
           GX5             -0.06831     0.00298
           GY5             -0.13423    -0.00091
           GZ5              0.03662     0.00195
           GX6             -0.06831     0.00298
           GY6              0.13423     0.00091
           GZ6              0.03662     0.00195


 Normal Modes of low/zero frequencies

                                  1           2           3           4           5
 Wavenumbers [cm-1]            0.00        0.00        0.00        0.00        0.00
 Intensities [km/mol]          0.00        0.00        0.00        0.00        0.00
 Intensities [relative]        0.00        0.00        0.00        0.00        0.00
           GX1              0.30050    -0.03298     0.00853    -0.00170     0.00030
           GY1             -0.02117    -0.15764     0.04847    -0.11669     0.45742
           GZ1             -0.10464     0.19485     0.04049    -0.00670     0.06048
           GX2              0.13129     0.02051     0.12000    -0.01380    -0.00591
           GY2             -0.00270    -0.00167    -0.01037     0.05081     0.08232
           GZ2             -0.09933     0.19318     0.03699    -0.00633     0.06067
           GX3              0.06409     0.04175     0.16427    -0.01861    -0.00838
           GY3             -0.00151    -0.02028     0.03794     0.22580     0.04941
           GZ3              0.13913     0.11780    -0.12010     0.01073     0.06943
           GX4             -0.12851     0.10263     0.29115    -0.03239    -0.01545
           GY4              0.01957     0.15783    -0.02956     0.41567    -0.37840
           GZ4              0.14345     0.11643    -0.12294     0.01104     0.06958
           GX5              0.12931     0.07594     0.07637    -0.08630    -0.08326
           GY5             -0.01073    -0.11007     0.08895     0.21030     0.23313
           GZ5              0.21805    -0.05902    -0.12737    -0.13558     0.42349
           GX6              0.12114    -0.03109     0.17162     0.05783     0.07099
           GY6             -0.01073    -0.11007     0.08895     0.21030     0.23313
           GZ6              0.25259     0.23381    -0.23957     0.17079    -0.27757

                                  6
 Wavenumbers [cm-1]            0.00
 Intensities [km/mol]          0.00
 Intensities [relative]        0.00
           GX1              0.00422
           GY1              0.09815
           GZ1             -0.01944
           GX2              0.01314
           GY2              0.21471
           GZ2             -0.01972
           GX3              0.01668
           GY3             -0.04030
           GZ3             -0.03229
           GX4              0.02684
           GY4              0.09457
           GZ4             -0.03252
           GX5              0.21364
           GY5             -0.20748
           GZ5             -0.15181
           GX6             -0.18672
           GY6             -0.20748
           GZ6              0.07708


 Zero point energy:  0.05078136 [H]    11145.22 [1/CM]      133.33 [KJ/MOL]

 Recomputing wavefunction at initial geometry


 Recomputing integrals since geometry changed

1PROGRAM * SEWARD (Integral evaluation for generally contracted gaussian basis sets)     Author: Roland Lindh, 1990

 Geometry written to block  1 of record 700


 Point group  C1  



 ATOMIC COORDINATES

 NR  ATOM    CHARGE       X              Y              Z

   1  H       1.00   -0.087923699   -0.000000000    0.027795185
   2  O       8.00   -0.030640803   -0.000000000    1.855291370
   3  C       6.00    2.544836444    0.000000000    2.581148532
   4  H       1.00    2.591483508   -0.000000000    4.661314070
   5  H       1.00    3.583755203    1.695990977    1.920798276
   6  H       1.00    3.583755203   -1.695990977    1.920798276

 Bond lengths in Bohr (Angstrom)

 1-2  1.828393731  2-3  2.675808601  3-4  2.080688495  3-5  2.095662197  3-6  2.095662197
     ( 0.967544295)     ( 1.415976932)     ( 1.101052935)     ( 1.108976676)     ( 1.108976676)

 Bond angles

  1-2-3  107.53499254   2-3-4  107.02426795   2-3-5  113.05919038   2-3-6  113.05919038

  4-3-5  107.69259928   4-3-6  107.69259928   5-3-6  108.05254430

 NUCLEAR CHARGE:                   18
 NUMBER OF PRIMITIVE AOS:          82
 NUMBER OF SYMMETRY AOS:           80
 NUMBER OF CONTRACTIONS:           48   (  48A   )
 NUMBER OF CORE ORBITALS:           2   (   2A   )
 NUMBER OF VALENCE ORBITALS:       12   (  12A   )


 NUCLEAR REPULSION ENERGY   40.17229825


 Eigenvalues of metric

         1 0.979E-02 0.177E-01 0.381E-01 0.389E-01 0.390E-01 0.486E-01 0.504E-01 0.533E-01


 Contracted 2-electron integrals neglected if value below      1.0D-14
 AO integral compression algorithm  1   Integral accuracy      1.0D-14

     6.291 MB (compressed) written to integral file ( 92.6%)

     Node minimum: 0.786 MB, node maximum: 1.049 MB


 NUMBER OF SORTED TWO-ELECTRON INTEGRALS:      99372.     BUFFER LENGTH:  32768
 NUMBER OF SEGMENTS:   1  SEGMENT LENGTH:      99372      RECORD LENGTH: 524288

 Memory used in sort:       0.66 MW

 SORT1 READ      839336. AND WROTE       80967. INTEGRALS IN      1 RECORDS. CPU TIME:     0.02 SEC, REAL TIME:     0.02 SEC
 SORT2 READ      555544. AND WROTE      692076. INTEGRALS IN     21 RECORDS. CPU TIME:     0.00 SEC, REAL TIME:     0.00 SEC

 Node minimum:       98364.  Node maximum:       99372. integrals

 OPERATOR DM      FOR CENTER  0  COORDINATES:    0.000000    0.000000    0.000000
 Density functional group B3LYP3=B88+DIRAC+LYP+VWN3
 Functional: B88(Automatically generated (new) B88)                            Gradient terms: 1
 Functional: DIRAC(Automatically generated (new) DIRAC)                        Gradient terms: 0
 Functional: LYP(Automatically generated (new) LYP)                            Gradient terms: 1
 Functional: VWN3(Automatically generated (new) VWN3)                          Gradient terms: 0
 Use grid at  1800.2
 

 Exact exchange will be calculated, factor:  0.2000

 Functional: B88                       Factor:  0.7200
 Functional: DIRAC                     Factor:  0.0800
 Functional: LYP                       Factor:  0.8100
 Functional: VWN3                      Factor:  0.1900
 
 Generated new metagrid on record  1800.2 with target accuracy 1.0D-06 and 20872 points in CPU time    0.1
 Computed new grid on record 1800.1 in CPU time    0.1
   42186 words reserved for DFT integration

 PROGRAM * RKS-SCF (Restricted closed shell Kohn-Sham)     Authors: W. Meyer, H.-J. Werner, P.J. Knowles, 1993

 NUMBER OF ELECTRONS:       9+    9-    SPACE SYMMETRY=1    SPIN SYMMETRY: Singlet 
 CONVERGENCE THRESHOLDS:    1.00E-10 (Density)    1.00E-10 (Energy)
 MAX. NUMBER OF ITERATIONS:      300
 INTERPOLATION TYPE:            DIIS
 INTERPOLATION STEPS:              2 (START)      1 (STEP)
 LEVEL SHIFTS:                  0.00 (CLOSED)  0.00 (OPEN) 

 Number of closed-shell orbitals:    9 (   9 )


 Use fine grid record 1800.2 for energy threshold  1.0D-06
 Molecular orbitals read from record     2100.2  Type=RKS/CANONICAL (state 1.1)

 Molecular orbital dump at record        2100.2

 ITERATION    DDIFF          GRAD             ENERGY        2-EL.EN.            DIPOLE MOMENTS         DIIS   ORB.
    1      0.000D+00      0.000D+00      -115.72280742    186.920166    0.43618    0.00000   -0.42363    0    start
    2      0.000D+00      0.378D-11      -115.72280742    186.920166    0.43618    0.00000   -0.42363    0    orth

 Final occupancy:   9

 !RKS STATE 1.1 Energy               -115.722807417916
 Nuclear energy                        40.17229825
 One-electron energy                 -236.80276761
 Two-electron energy                   93.46008322
 SCF exchange energy                  -14.83543674     Factor= 0.2000
 Density functional                   -12.55242128     B88=-14.87504477 DIRAC=-13.41261297 LYP= -0.59557685 VWN3= -1.51033028
 Virial quotient                       -1.00657487
 !RKS STATE 1.1 Dipole moment           0.43618251     0.00000000    -0.42362761
 Dipole moment /Debye                   1.10859274     0.00000000    -1.07668346

 Orbital energies:

         1.1          2.1          3.1          4.1          5.1          6.1          7.1          8.1          9.1         10.1
    -19.130285   -10.226926    -1.011089    -0.675278    -0.500189    -0.431180    -0.417536    -0.328295    -0.264435     0.055153

        11.1
      0.092220

 HOMO      9.1    -0.264435 =      -7.1956eV
 LUMO     10.1     0.055153 =       1.5008eV
 LUMO-HOMO         0.319588 =       8.6964eV


 **********************************************************************************************************************************
 DATASETS  * FILE   NREC   LENGTH (MB)   RECORD NAMES
              1      19       19.24       500      610      700      900      950      970     1000      129      960     1100   
                                          VAR    BASINP    GEOM    SYMINP    ZMAT    AOBASIS   BASIS     P2S    ABASIS      S 
                                         1400     1410     1200     1210     1080     1600     1650     1700     1800   
                                           T        V       H0       H01     AOSYM     SMH    MOLCAS    OPER     GRID   

              2       8        0.57       700     1000      520     1800     2100     5300     5400     5450   
                                         GEOM     BASIS   MCVARS    GRID      RKS     HESS     FREQ     NMOD   

 PROGRAMS   *        TOTAL       RKS      OPTG       RKS       INT
 CPU TIMES  *        94.93      0.35     17.10      0.27      0.25
 REAL TIME  *        98.07 SEC
 DISK USED  *       176.28 MB      
 SF USED    *         0.01 MB      
 GA USED    *         0.74 MB       (max)       0.73 MB       (current)
 **********************************************************************************************************************************


 **********************************************************************************************************************************
 DATASETS  * FILE   NREC   LENGTH (MB)   RECORD NAMES
              1      19       19.24       500      610      700      900      950      970     1000      129      960     1100   
                                          VAR    BASINP    GEOM    SYMINP    ZMAT    AOBASIS   BASIS     P2S    ABASIS      S 
                                         1400     1410     1200     1210     1080     1600     1650     1700     1800   
                                           T        V       H0       H01     AOSYM     SMH    MOLCAS    OPER     GRID   

              2       8        0.57       700     1000      520     1800     2100     5300     5400     5450   
                                         GEOM     BASIS   MCVARS    GRID      RKS     HESS     FREQ     NMOD   

 PROGRAMS   *        TOTAL      FREQ      OPTG       RKS       INT
 CPU TIMES  *        94.93     77.18     17.10      0.27      0.25
 REAL TIME  *        98.07 SEC
 DISK USED  *       176.28 MB      
 SF USED    *         0.01 MB      
 GA USED    *         0.74 MB       (max)       0.73 MB       (current)
 **********************************************************************************************************************************

 RB3LYP3/cc-pVDZ energy=   -115.722807417916

       OPTG(RKS)        RKS-SCF 
   -115.72280742   -115.72109378
 **********************************************************************************************************************************
 Variable memory released
