 Entering Gaussian System, Link 0=g09
 Initial command:
 /soft/gaussian/09-e.01/g09/l1.exe "/scratch/kmoore/Gau-110880.inp" -scrdir="/scratch/kmoore"
 Entering Link 1 = /soft/gaussian/09-e.01/g09/l1.exe PID=    110881.
  
 Copyright (c) 1988,1990,1992,1993,1995,1998,2003,2009,2015,
            Gaussian, Inc.  All Rights Reserved.
  
 This is part of the Gaussian(R) 09 program.  It is based on
 the Gaussian(R) 03 system (copyright 2003, Gaussian, Inc.),
 the Gaussian(R) 98 system (copyright 1998, Gaussian, Inc.),
 the Gaussian(R) 94 system (copyright 1995, Gaussian, Inc.),
 the Gaussian 92(TM) system (copyright 1992, Gaussian, Inc.),
 the Gaussian 90(TM) system (copyright 1990, Gaussian, Inc.),
 the Gaussian 88(TM) system (copyright 1988, Gaussian, Inc.),
 the Gaussian 86(TM) system (copyright 1986, Carnegie Mellon
 University), and the Gaussian 82(TM) system (copyright 1983,
 Carnegie Mellon University). Gaussian is a federally registered
 trademark of Gaussian, Inc.
  
 This software contains proprietary and confidential information,
 including trade secrets, belonging to Gaussian, Inc.
  
 This software is provided under written license and may be
 used, copied, transmitted, or stored only in accord with that
 written license.
  
 The following legend is applicable only to US Government
 contracts under FAR:
  
                    RESTRICTED RIGHTS LEGEND
  
 Use, reproduction and disclosure by the US Government is
 subject to restrictions as set forth in subparagraphs (a)
 and (c) of the Commercial Computer Software - Restricted
 Rights clause in FAR 52.227-19.
  
 Gaussian, Inc.
 340 Quinnipiac St., Bldg. 40, Wallingford CT 06492
  
  
 ---------------------------------------------------------------
 Warning -- This program may not be used in any manner that
 competes with the business of Gaussian, Inc. or will provide
 assistance to any competitor of Gaussian, Inc.  The licensee
 of this program is prohibited from giving any competitor of
 Gaussian, Inc. access to this program.  By using this program,
 the user acknowledges that Gaussian, Inc. is engaged in the
 business of creating and licensing software in the field of
 computational chemistry and represents and warrants to the
 licensee that it is not a competitor of Gaussian, Inc. and that
 it will not use this program in any manner prohibited above.
 ---------------------------------------------------------------
  

 Cite this work as:
 Gaussian 09, Revision E.01,
 M. J. Frisch, G. W. Trucks, H. B. Schlegel, G. E. Scuseria, 
 M. A. Robb, J. R. Cheeseman, G. Scalmani, V. Barone, B. Mennucci, 
 G. A. Petersson, H. Nakatsuji, M. Caricato, X. Li, H. P. Hratchian, 
 A. F. Izmaylov, J. Bloino, G. Zheng, J. L. Sonnenberg, M. Hada, 
 M. Ehara, K. Toyota, R. Fukuda, J. Hasegawa, M. Ishida, T. Nakajima, 
 Y. Honda, O. Kitao, H. Nakai, T. Vreven, J. A. Montgomery, Jr., 
 J. E. Peralta, F. Ogliaro, M. Bearpark, J. J. Heyd, E. Brothers, 
 K. N. Kudin, V. N. Staroverov, T. Keith, R. Kobayashi, J. Normand, 
 K. Raghavachari, A. Rendell, J. C. Burant, S. S. Iyengar, J. Tomasi, 
 M. Cossi, N. Rega, J. M. Millam, M. Klene, J. E. Knox, J. B. Cross, 
 V. Bakken, C. Adamo, J. Jaramillo, R. Gomperts, R. E. Stratmann, 
 O. Yazyev, A. J. Austin, R. Cammi, C. Pomelli, J. W. Ochterski, 
 R. L. Martin, K. Morokuma, V. G. Zakrzewski, G. A. Voth, 
 P. Salvador, J. J. Dannenberg, S. Dapprich, A. D. Daniels, 
 O. Farkas, J. B. Foresman, J. V. Ortiz, J. Cioslowski, 
 and D. J. Fox, Gaussian, Inc., Wallingford CT, 2013.
 
 ******************************************
 Gaussian 09:  ES64L-G09RevE.01 30-Nov-2015
                27-Jan-2019 
 ******************************************
 %mem=30gb
 %nproc=1
 Will use up to    1 processors via shared memory.
 ----------------------
 # ROHF CCSD(T)/cc-pVDZ
 ----------------------
 1/38=1/1;
 2/12=2,17=6,18=5,40=1/2;
 3/5=16,11=2,16=1,25=1,30=1,116=101/1,2,3;
 4//1;
 5/5=2,38=5/2;
 8/5=-1,6=4,9=120000,10=1/1,4;
 9/5=7,14=2/13;
 6/7=2,8=2,9=2,10=2/1;
 99/5=1,9=1/99;
 ------------
 Single Point
 ------------
 Symbolic Z-matrix:
 Charge =  0 Multiplicity = 2
 O                     0.        0.        0. 
 O                     0.        0.        1.31157 
 H                     0.94363   0.        1.57318 
 
                          Input orientation:                          
 ---------------------------------------------------------------------
 Center     Atomic      Atomic             Coordinates (Angstroms)
 Number     Number       Type             X           Y           Z
 ---------------------------------------------------------------------
      1          8           0        0.000000    0.000000    0.000000
      2          8           0        0.000000    0.000000    1.311565
      3          1           0        0.943625    0.000000    1.573176
 ---------------------------------------------------------------------
                    Distance matrix (angstroms):
                    1          2          3
     1  O    0.000000
     2  O    1.311565   0.000000
     3  H    1.834478   0.979218   0.000000
 Stoichiometry    HO2(2)
 Framework group  CS[SG(HO2)]
 Deg. of freedom     3
 Full point group                 CS      NOp   2
 Largest Abelian subgroup         CS      NOp   2
 Largest concise Abelian subgroup C1      NOp   1
                         Standard orientation:                         
 ---------------------------------------------------------------------
 Center     Atomic      Atomic             Coordinates (Angstroms)
 Number     Number       Type             X           Y           Z
 ---------------------------------------------------------------------
      1          8           0        0.055507    0.709747   -0.000000
      2          8           0        0.055507   -0.601818    0.000000
      3          1           0       -0.888118   -0.863429    0.000000
 ---------------------------------------------------------------------
 Rotational constants (GHZ):    617.8204555     34.5404242     32.7116191
 Standard basis: CC-pVDZ (5D, 7F)
 There are    26 symmetry adapted cartesian basis functions of A'  symmetry.
 There are     9 symmetry adapted cartesian basis functions of A"  symmetry.
 There are    24 symmetry adapted basis functions of A'  symmetry.
 There are     9 symmetry adapted basis functions of A"  symmetry.
    33 basis functions,    73 primitive gaussians,    35 cartesian basis functions
     9 alpha electrons        8 beta electrons
       nuclear repulsion energy        32.4530418823 Hartrees.
 NAtoms=    3 NActive=    3 NUniq=    3 SFac= 1.00D+00 NAtFMM=   60 NAOKFM=F Big=F
 Integral buffers will be    131072 words long.
 Raffenetti 2 integral format.
 Two-electron integral symmetry is turned on.
 One-electron integrals computed using PRISM.
 NBasis=    33 RedAO= T EigKep=  3.14D-02  NBF=    24     9
 NBsUse=    33 1.00D-06 EigRej= -1.00D+00 NBFU=    24     9
 ExpMin= 1.22D-01 ExpMax= 1.17D+04 ExpMxC= 4.01D+02 IAcc=1 IRadAn=         1 AccDes= 0.00D+00
 Harris functional with IExCor=  205 and IRadAn=       1 diagonalized for initial guess.
 HarFok:  IExCor=  205 AccDes= 0.00D+00 IRadAn=         1 IDoV= 1 UseB2=F ITyADJ=14
 ICtDFT=  3500011 ScaDFX=  1.000000  1.000000  1.000000  1.000000
 FoFCou: FMM=F IPFlag=           0 FMFlag=      100000 FMFlg1=           0
         NFxFlg=           0 DoJE=T BraDBF=F KetDBF=T FulRan=T
         wScrn=  0.000000 ICntrl=     500 IOpCl=  0 I1Cent=   200000004 NGrid=           0
         NMat0=    1 NMatS0=      1 NMatT0=    0 NMatD0=    1 NMtDS0=    0 NMtDT0=    0
 Petite list used in FoFCou.
 Initial guess orbital symmetries:
       Occupied  (A') (A') (A') (A') (A') (A') (A") (A') (A")
       Virtual   (A') (A') (A') (A') (A") (A') (A') (A") (A') (A')
                 (A") (A') (A') (A') (A") (A') (A") (A') (A') (A")
                 (A") (A') (A') (A')
 The electronic state of the initial guess is 2-A".
 Keep R1 and R2 ints in memory in symmetry-blocked form, NReq=1029083.
 Requested convergence on RMS density matrix=1.00D-08 within 128 cycles.
 Requested convergence on MAX density matrix=1.00D-06.
 Requested convergence on             energy=1.00D-06.
 No special actions if energy rises.
 SCF Done:  E(ROHF) =  -150.181930595     A.U. after   16 cycles
            NFock= 16  Conv=0.18D-08     -V/T= 1.9998
 <Sx>= 0.0000 <Sy>= 0.0000 <Sz>= 0.5000 <S**2>= 0.7500 S= 0.5000
 <L.S>= 0.000000000000E+00
 Annihilation of the first spin contaminant:
 S**2 before annihilation     0.7500,   after     0.7500
 GenMOA:  NOpAll=  2 NOp2=2 NOpUse=  2 JSym2X=1
 <Sx>= 0.0000 <Sy>= 0.0000 <Sz>= 0.5000 <S**2>= 0.7500 S= 0.5000
 ExpMin= 1.22D-01 ExpMax= 1.17D+04 ExpMxC= 4.01D+02 IAcc=3 IRadAn=         5 AccDes= 0.00D+00
 HarFok:  IExCor=  205 AccDes= 0.00D+00 IRadAn=         5 IDoV=-2 UseB2=F ITyADJ=14
 ICtDFT= 12500011 ScaDFX=  1.000000  1.000000  1.000000  1.000000
 Range of M.O.s used for correlation:     3    33
 NBasis=    33 NAE=     9 NBE=     8 NFC=     2 NFV=     0
 NROrb=     31 NOA=     7 NOB=     6 NVA=    24 NVB=    25
 Singles contribution to E2=   -0.3769689591D-02
 Semi-Direct transformation.
 ModeAB=           2 MOrb=             7 LenV=    4026342674
 LASXX=        43133 LTotXX=       43133 LenRXX=       43133
 LTotAB=       50508 MaxLAS=      136710 LenRXY=      136710
 NonZer=      146475 LenScr=      785920 LnRSAI=           0
 LnScr1=           0 LExtra=           0 Total=       965763
 MaxDsk=          -1 SrtSym=           F ITran=            4
 JobTyp=1 Pass  1:  I=   1 to   7.
 (rs|ai) integrals will be sorted in core.
 ModeAB=           2 MOrb=             6 LenV=    4026342674
 LASXX=        38507 LTotXX=       38507 LenRXX=      117180
 LTotAB=       27107 MaxLAS=      117180 LenRXY=       27107
 NonZer=      125550 LenScr=      785920 LnRSAI=           0
 LnScr1=           0 LExtra=           0 Total=       930207
 MaxDsk=          -1 SrtSym=           F ITran=            4
 JobTyp=2 Pass  1:  I=   1 to   6.
 (rs|ai) integrals will be sorted in core.
 Spin components of T(2) and E(2):
     alpha-alpha T2 =       0.1144197600D-01 E2=     -0.4775720120D-01
     alpha-beta  T2 =       0.6523242656D-01 E2=     -0.2538708906D+00
     beta-beta   T2 =       0.1232663747D-01 E2=     -0.4305469817D-01
 ANorm=    0.1044302293D+01
 E2 =    -0.3484524795D+00 EUMP2 =    -0.15053038307471D+03
 (S**2,0)=  0.75000D+00           (S**2,1)=  0.75000D+00
 E(PUHF)=      -0.15018193060D+03        E(PMP2)=      -0.15053038307D+03
 Keep R2 and R3 ints in memory in symmetry-blocked form, NReq=989067.
 Iterations=  50 Convergence= 0.100D-06
 Iteration Nr.   1
 **********************
 DD1Dir will call FoFMem   1 times, MxPair=       120
 NAB=    42 NAA=    21 NBB=    15.
 DD1Dir will call FoFMem   1 times, MxPair=       120
 NAB=    42 NAA=    21 NBB=    15.
 MP4(R+Q)=  0.13186070D-01
 E3=       -0.84339322D-02        EROMP3=      -0.15053881701D+03
 E4(SDQ)=  -0.79276342D-02        ROMP4(SDQ)=  -0.15054674464D+03
 DE(Corr)= -0.34367048     E(Corr)=     -150.52560108    
 NORM(A)=   0.10428880D+01
 Iteration Nr.   2
 **********************
 DD1Dir will call FoFMem   1 times, MxPair=       120
 NAB=    42 NAA=    21 NBB=    15.
 DE(Corr)= -0.35178713     E(CORR)=     -150.53371773     Delta=-8.12D-03
 NORM(A)=   0.10431783D+01
 Iteration Nr.   3
 **********************
 DD1Dir will call FoFMem   1 times, MxPair=       120
 NAB=    42 NAA=    21 NBB=    15.
 DE(Corr)= -0.35361264     E(CORR)=     -150.53554324     Delta=-1.83D-03
 NORM(A)=   0.10473392D+01
 Iteration Nr.   4
 **********************
 DD1Dir will call FoFMem   1 times, MxPair=       120
 NAB=    42 NAA=    21 NBB=    15.
 DE(Corr)= -0.35838547     E(CORR)=     -150.54031607     Delta=-4.77D-03
 NORM(A)=   0.16317165D+01
 Iteration Nr.   5
 **********************
 DD1Dir will call FoFMem   1 times, MxPair=       120
 NAB=    42 NAA=    21 NBB=    15.
 DE(Corr)= -0.46357330     E(CORR)=     -150.64550389     Delta=-1.05D-01
 NORM(A)=   0.10823257D+01
 Iteration Nr.   6
 **********************
 DD1Dir will call FoFMem   1 times, MxPair=       120
 NAB=    42 NAA=    21 NBB=    15.
 DE(Corr)= -0.37607065     E(CORR)=     -150.55800125     Delta= 8.75D-02
 NORM(A)=   0.10620393D+01
 Iteration Nr.   7
 **********************
 DD1Dir will call FoFMem   1 times, MxPair=       120
 NAB=    42 NAA=    21 NBB=    15.
 DE(Corr)= -0.36688678     E(CORR)=     -150.54881738     Delta= 9.18D-03
 NORM(A)=   0.10645425D+01
 Iteration Nr.   8
 **********************
 DD1Dir will call FoFMem   1 times, MxPair=       120
 NAB=    42 NAA=    21 NBB=    15.
 DE(Corr)= -0.36730296     E(CORR)=     -150.54923355     Delta=-4.16D-04
 NORM(A)=   0.10664867D+01
 Iteration Nr.   9
 **********************
 DD1Dir will call FoFMem   1 times, MxPair=       120
 NAB=    42 NAA=    21 NBB=    15.
 DE(Corr)= -0.36760752     E(CORR)=     -150.54953812     Delta=-3.05D-04
 NORM(A)=   0.10662895D+01
 Iteration Nr.  10
 **********************
 DD1Dir will call FoFMem   1 times, MxPair=       120
 NAB=    42 NAA=    21 NBB=    15.
 DE(Corr)= -0.36755555     E(CORR)=     -150.54948615     Delta= 5.20D-05
 NORM(A)=   0.10661281D+01
 Iteration Nr.  11
 **********************
 DD1Dir will call FoFMem   1 times, MxPair=       120
 NAB=    42 NAA=    21 NBB=    15.
 DE(Corr)= -0.36752691     E(CORR)=     -150.54945751     Delta= 2.86D-05
 NORM(A)=   0.10660996D+01
 Iteration Nr.  12
 **********************
 DD1Dir will call FoFMem   1 times, MxPair=       120
 NAB=    42 NAA=    21 NBB=    15.
 DE(Corr)= -0.36752052     E(CORR)=     -150.54945112     Delta= 6.39D-06
 NORM(A)=   0.10660991D+01
 Iteration Nr.  13
 **********************
 DD1Dir will call FoFMem   1 times, MxPair=       120
 NAB=    42 NAA=    21 NBB=    15.
 DE(Corr)= -0.36752115     E(CORR)=     -150.54945174     Delta=-6.23D-07
 NORM(A)=   0.10661025D+01
 Iteration Nr.  14
 **********************
 DD1Dir will call FoFMem   1 times, MxPair=       120
 NAB=    42 NAA=    21 NBB=    15.
 DE(Corr)= -0.36752186     E(CORR)=     -150.54945246     Delta=-7.15D-07
 NORM(A)=   0.10661027D+01
 Iteration Nr.  15
 **********************
 DD1Dir will call FoFMem   1 times, MxPair=       120
 NAB=    42 NAA=    21 NBB=    15.
 DE(Corr)= -0.36752188     E(CORR)=     -150.54945247     Delta=-1.75D-08
 NORM(A)=   0.10661029D+01
 Dominant configurations:
 ***********************
 Spin Case        I    J    A    B          Value
    BB            7         9            0.168676D+00
 Largest amplitude= 1.69D-01
 Time for triples=        0.35 seconds.
 T4(CCSD)= -0.10260842D-01
 T5(CCSD)=  0.16703728D-02
 CCSD(T)= -0.15055804294D+03
 Discarding MO integrals.

 **********************************************************************

            Population analysis using the SCF density.

 **********************************************************************

 Orbital symmetries:
       Occupied  (A') (A') (A') (A') (A') (A') (A") (A') (A")
       Virtual   (A') (A') (A') (A') (A") (A') (A') (A") (A') (A")
                 (A') (A') (A') (A') (A") (A') (A") (A') (A') (A")
                 (A") (A') (A') (A')
 The electronic state is 2-A".
 Alpha  occ. eigenvalues --  -20.67802 -20.66298  -1.57856  -1.19107  -0.76769
 Alpha  occ. eigenvalues --   -0.74208  -0.67260  -0.50875  -0.50174
 Alpha virt. eigenvalues --    0.17292   0.36649   0.77876   1.09259   1.09802
 Alpha virt. eigenvalues --    1.14079   1.16149   1.20072   1.26319   1.51717
 Alpha virt. eigenvalues --    1.52892   1.70584   2.00578   2.35925   2.45947
 Alpha virt. eigenvalues --    2.70588   2.82252   2.84054   2.94958   3.22330
 Alpha virt. eigenvalues --    3.50497   3.61564   3.89531   4.23033
          Condensed to atoms (all electrons):
               1          2          3
     1  O    8.014579   0.089722  -0.040221
     2  O    0.089722   7.706614   0.347003
     3  H   -0.040221   0.347003   0.485799
          Atomic-Atomic Spin Densities.
               1          2          3
     1  O    0.978558  -0.086168  -0.000478
     2  O   -0.086168   0.190548   0.001995
     3  H   -0.000478   0.001995   0.000198
 Mulliken charges and spin densities:
               1          2
     1  O   -0.064080   0.891912
     2  O   -0.143339   0.106374
     3  H    0.207420   0.001714
 Sum of Mulliken charges =  -0.00000   1.00000
 Mulliken charges and spin densities with hydrogens summed into heavy atoms:
               1          2
     1  O   -0.064080   0.891912
     2  O    0.064080   0.108088
 Electronic spatial extent (au):  <R**2>=             53.4233
 Charge=             -0.0000 electrons
 Dipole moment (field-independent basis, Debye):
    X=             -1.8377    Y=             -0.8978    Z=              0.0000  Tot=              2.0453
 Quadrupole moment (field-independent basis, Debye-Ang):
   XX=             -9.5228   YY=            -10.8389   ZZ=            -10.6146
   XY=              1.7303   XZ=             -0.0000   YZ=              0.0000
 Traceless Quadrupole moment (field-independent basis, Debye-Ang):
   XX=              0.8027   YY=             -0.5135   ZZ=             -0.2892
   XY=              1.7303   XZ=             -0.0000   YZ=              0.0000
 Octapole moment (field-independent basis, Debye-Ang**2):
  XXX=             -2.2811  YYY=             -1.3166  ZZZ=             -0.0000  XYY=             -1.8034
  XXY=             -1.8361  XXZ=              0.0000  XZZ=             -0.2064  YZZ=              0.4781
  YYZ=              0.0000  XYZ=              0.0000
 Hexadecapole moment (field-independent basis, Debye-Ang**3):
 XXXX=             -7.8248 YYYY=            -34.4245 ZZZZ=             -6.9328 XXXY=              0.4217
 XXXZ=             -0.0000 YYYX=              0.4909 YYYZ=              0.0000 ZZZX=              0.0000
 ZZZY=              0.0000 XXYY=             -6.8419 XXZZ=             -2.7555 YYZZ=             -7.2255
 XXYZ=              0.0000 YYXZ=             -0.0000 ZZXY=             -0.2861
 N-N= 3.245304188229D+01 E-N=-4.217986975756D+02  KE= 1.502101385152D+02
 Symmetry A'   KE= 1.428759420240D+02
 Symmetry A"   KE= 7.334196491275D+00
                          Isotropic Fermi Contact Couplings
        Atom                 a.u.       MegaHertz       Gauss      10(-4) cm-1
     1  O(17)              0.00000      -0.00000      -0.00000      -0.00000
     2  O(17)              0.00000      -0.00000      -0.00000      -0.00000
     3  H(1)               0.00000       0.00000       0.00000       0.00000
 --------------------------------------------------------
       Center         ----  Spin Dipole Couplings  ----
                      3XX-RR        3YY-RR        3ZZ-RR
 --------------------------------------------------------
     1   Atom       -1.816330     -1.812939      3.629270
     2   Atom       -0.315047     -0.199983      0.515031
     3   Atom        0.014427      0.004404     -0.018830
 --------------------------------------------------------
                        XY            XZ            YZ
 --------------------------------------------------------
     1   Atom        0.000084     -0.000000     -0.000000
     2   Atom        0.000541      0.000000     -0.000000
     3   Atom        0.029569     -0.000000     -0.000000
 --------------------------------------------------------


 ---------------------------------------------------------------------------------
              Anisotropic Spin Dipole Couplings in Principal Axis System
 ---------------------------------------------------------------------------------

       Atom             a.u.   MegaHertz   Gauss  10(-4) cm-1        Axes

              Baa    -1.8163   131.429    46.897    43.840  0.9997 -0.0248  0.0000
     1 O(17)  Bbb    -1.8129   131.183    46.809    43.758  0.0248  0.9997  0.0000
              Bcc     3.6293  -262.611   -93.706   -87.598  0.0000  0.0000  1.0000
 
              Baa    -0.3150    22.797     8.134     7.604  1.0000 -0.0047  0.0000
     2 O(17)  Bbb    -0.2000    14.470     5.163     4.827  0.0047  1.0000  0.0000
              Bcc     0.5150   -37.267   -13.298   -12.431  0.0000  0.0000  1.0000
 
              Baa    -0.0206   -10.978    -3.917    -3.662 -0.6453  0.7639 -0.0000
     3 H(1)   Bbb    -0.0188   -10.047    -3.585    -3.351  0.0000  0.0000  1.0000
              Bcc     0.0394    21.025     7.502     7.013  0.7639  0.6453 -0.0000
 

 ---------------------------------------------------------------------------------

 1\1\GINC-B460\SP\ROCCSD(T)-FC\CC-pVDZ\H1O2(2)\KMOORE\27-Jan-2019\0\\# 
 ROHF CCSD(T)/cc-pVDZ\\Single Point\\0,2\O,0,0.,0.,0.\O,0,0.,0.,1.31156
 5\H,0,0.943625,0.,1.573176\\Version=ES64L-G09RevE.01\State=2-A"\HF=-15
 0.1819306\MP2=-150.5303831\MP3=-150.538817\PUHF=-150.1819306\PMP2-0=-1
 50.5303831\MP4SDQ=-150.5467446\CCSD=-150.5494525\CCSD(T)=-150.5580429\
 RMSD=1.763e-09\PG=CS [SG(H1O2)]\\@


 LIVE PURE, SPEAK TRUE, RIGHT WRONG, FOLLOW THE KING...
 ELSE, WHEREFORE BORN......
           IDYLLS OF THE KING, TENNYSON
 Job cpu time:       0 days  0 hours  0 minutes  2.8 seconds.
 File lengths (MBytes):  RWF=     14 Int=      0 D2E=      0 Chk=      1 Scr=      1
 Normal termination of Gaussian 09 at Sun Jan 27 13:22:56 2019.
