
 Primary working directories    : /scratch/kmoore
 Secondary working directories  : /scratch/kmoore
 Wavefunction directory         : /scratch/kmoore/
 Main file repository           : /scratch/kmoore/

 SHA1      : b6b3a4772808bb2d43777f23454e145ddfe12dc3
 NAME      : 2015.1.1
 ARCHNAME  : linux/x86_64
 FC        : /soft/mvapich2/2.2b_psm/intel-15.0/bin/mpif90
 BLASLIB   : -L/soft/intel/15.0.1/composer_xe_2015.0.090/mkl/lib/intel64 -lmkl_intel_ilp64 -lmkl_sequential -lmkl_core
 id        : anlgov

 Nodes     nprocs
 b460         1

 Using customized tuning parameters: mindgm=1; mindgv=20; mindgc=4; mindgr=1; noblas=0; minvec=7
 default implementation of scratch files=df  

 angstrom
 Geometry = {
  O       0.000000    0.000000    0.000000
  O       0.000000    0.000000    1.311565
  H       0.943625    0.000000    1.573176
 }
 
 set,charge=0
 set,spin=1
 
 basis=cc-pVDZ
 
 {uhf}
 {ump2}

 Variables initialized (889), CPU time= 0.01 sec
 Commands  initialized (702), CPU time= 0.00 sec, 572 directives.
 Default parameters read. Elapsed time= 0.05 sec

 Checking input...
 Passed
1


                                         ***  PROGRAM SYSTEM MOLPRO  ***
                                       Copyright, TTI GmbH Stuttgart, 2015
                                    Version 2015.1 linked Jan  8 2016 07:59:11


 **********************************************************************************************************************************
 LABEL *                                                                                 
  64 bit serial version                                                                  DATE: 27-Jan-19          TIME: 13:18:58  
 **********************************************************************************************************************************

 SHA1:             b6b3a4772808bb2d43777f23454e145ddfe12dc3
 **********************************************************************************************************************************
 ZUNIT=ANG
 

Geometry recognized as XYZ

 SETTING CHARGE         =     0.00000000D+00                                  
 SETTING SPIN           =         1.00000000                                  

 Variable memory set to    8000000 words,  buffer space   230000 words

 SETTING BASIS          =    CC-PVDZ


 Recomputing integrals since basis changed


 Using spherical harmonics

 Library entry O      S cc-pVDZ              selected for orbital group  1
 Library entry O      P cc-pVDZ              selected for orbital group  1
 Library entry O      D cc-pVDZ              selected for orbital group  1
 Library entry H      S cc-pVDZ              selected for orbital group  2
 Library entry H      P cc-pVDZ              selected for orbital group  2

1PROGRAM * SEWARD (Integral evaluation for generally contracted gaussian basis sets)     Author: Roland Lindh, 1990

 Geometry written to block  1 of record 700


 Point group  Cs  



 ATOMIC COORDINATES

 NR  ATOM    CHARGE       X              Y              Z

   1  O       8.00    0.000000000    0.000000000    0.000000000
   2  O       8.00    0.000000000    0.000000000    2.478498645
   3  H       1.00    1.783192814    0.000000000    2.972871786

 Bond lengths in Bohr (Angstrom)

 1-2  2.478498645  2-3  1.850454381
     ( 1.311565000)     ( 0.979218288)

 Bond angles

  1-2-3  105.49552466

 NUCLEAR CHARGE:                   17
 NUMBER OF PRIMITIVE AOS:          61
 NUMBER OF SYMMETRY AOS:           59
 NUMBER OF CONTRACTIONS:           33   (  24A'  +   9A"  )
 NUMBER OF CORE ORBITALS:           2   (   2A'  +   0A"  )
 NUMBER OF VALENCE ORBITALS:        9   (   7A'  +   2A"  )


 NUCLEAR REPULSION ENERGY   32.45304203

 Eigenvalues of metric

         1 0.117E-01 0.307E-01 0.488E-01 0.112E+00 0.147E+00 0.159E+00 0.192E+00 0.205E+00
         2 0.152E+00 0.207E+00 0.581E+00 0.776E+00 0.995E+00 0.110E+01 0.117E+01 0.149E+01


 Contracted 2-electron integrals neglected if value below      1.0D-11
 AO integral compression algorithm  1   Integral accuracy      1.0D-11

     0.524 MB (compressed) written to integral file ( 65.6%)


 NUMBER OF SORTED TWO-ELECTRON INTEGRALS:      86685.     BUFFER LENGTH:  32768
 NUMBER OF SEGMENTS:   1  SEGMENT LENGTH:      86685      RECORD LENGTH: 524288

 Memory used in sort:       0.64 MW

 SORT1 READ      110522. AND WROTE       61409. INTEGRALS IN      1 RECORDS. CPU TIME:     0.00 SEC, REAL TIME:     0.01 SEC
 SORT2 READ       61409. AND WROTE       86685. INTEGRALS IN      2 RECORDS. CPU TIME:     0.01 SEC, REAL TIME:     0.01 SEC

 FILE SIZES:   FILE 1:    19.7 MBYTE,  FILE 4:     4.2 MBYTE,   TOTAL:     23.9 MBYTE

 OPERATOR DM      FOR CENTER  0  COORDINATES:    0.000000    0.000000    0.000000


 **********************************************************************************************************************************
 DATASETS  * FILE   NREC   LENGTH (MB)   RECORD NAMES
              1      19       19.46       500      610      700      900      950      970     1000      129      960     1100   
                                          VAR    BASINP    GEOM    SYMINP    ZMAT    AOBASIS   BASIS     P2S    ABASIS      S 
                                         1400     1410     1200     1210     1080     1600     1650     1300     1700   
                                           T        V       H0       H01     AOSYM     SMH    MOLCAS    ERIS     OPER   

 PROGRAMS   *        TOTAL       INT
 CPU TIMES  *         0.15      0.06
 REAL TIME  *         0.22 SEC
 DISK USED  *        24.18 MB      
 **********************************************************************************************************************************

1PROGRAM * UHF-SCF       Authors: W. Meyer, H.-J. Werner


 NUMBER OF ELECTRONS:       9+    8-
 CONVERGENCE THRESHOLDS:    1.00E-05 (Density)    1.00E-07 (Energy)
 MAX. NUMBER OF ITERATIONS:       60
 INTERPOLATION TYPE:            DIIS
 INTERPOLATION STEPS:              2 (START)      1 (STEP)
 LEVEL SHIFTS:                  0.20 (ALPHA)   0.20 (BETA) 



 Orbital guess generated from atomic densities. Full valence occupancy:    9   2

 Molecular orbital dump at record        2200.2

 Initial alpha occupation   7   2
 Initial beta  occupation   6   2

 ITERATION    DDIFF          GRAD             ENERGY        2-EL.EN.            DIPOLE MOMENTS         DIIS
    1      0.000D+00      0.000D+00      -150.10669664    176.924160    0.93387    0.00000    0.77235    0
    2      0.199D-01      0.109D-01      -150.14511987    178.091592    0.79951    0.00000    0.53507    1
    3      0.879D-02      0.429D-02      -150.15504296    177.968595    0.75361    0.00000    0.43523    2
    4      0.472D-02      0.274D-02      -150.16035993    178.048917    0.73655    0.00000    0.35221    3
    5      0.320D-02      0.155D-02      -150.16263711    178.025599    0.72718    0.00000    0.32020    4
    6      0.204D-02      0.811D-03      -150.16328882    178.020651    0.72680    0.00000    0.31007    5
    7      0.879D-03      0.280D-03      -150.16339918    178.032528    0.72628    0.00000    0.31296    6
    8      0.353D-03      0.171D-03      -150.16343406    178.027247    0.72564    0.00000    0.31380    7
    9      0.277D-03      0.114D-03      -150.16345591    178.029611    0.72436    0.00000    0.31360    8
   10      0.148D-03      0.503D-04      -150.16346001    178.028990    0.72306    0.00000    0.31246    9
   11      0.283D-04      0.147D-04      -150.16346023    178.029007    0.72281    0.00000    0.31226    9
   12      0.722D-05      0.575D-05      -150.16346028    178.029031    0.72281    0.00000    0.31231    9
   13      0.716D-05      0.338D-05      -150.16346030    178.029092    0.72287    0.00000    0.31236    8
 
 Final alpha occupancy:   7   2
 Final beta  occupancy:   6   2

 !UHF STATE 1.1 Energy               -150.163460296987
 Nuclear energy                        32.45304203
 One-electron energy                 -271.63104828
 Two-electron energy                   89.01454596
 Virial quotient                       -0.99890824
 !UHF STATE 1.1 Dipole moment           0.72287267     0.00000000     0.31236103
 Dipole moment /Debye                   1.83723872     0.00000000     0.79389055

 Orbital energies for positive spin:

         1.1          2.1          3.1          4.1          5.1          6.1          7.1          8.1          9.1
    -20.681707   -20.638695    -1.579686    -1.190676    -0.796221    -0.681840    -0.564953     0.171892     0.368569

         1.2          2.2          3.2          4.2
     -0.691177    -0.456289     1.129769     1.230459

 Orbital energies for negative spin:

         1.1          2.1          3.1          4.1          5.1          6.1          7.1          8.1          9.1
    -20.639635   -20.638245    -1.517987    -1.095214    -0.712726    -0.616698     0.122037     0.176005     0.401158

         1.2          2.2          3.2          4.2
     -0.669444    -0.430846     1.140821     1.242267

 HOMO     -2.2    -0.430846 =     -11.7239eV
 LUMO     -7.1     0.122037 =       3.3208eV
 LUMO-HOMO         0.552883 =      15.0447eV

 EXPECTATION VALUE OF S**2:             0.75707711

 Occupation number threshold for canonical orbitals:  1.999000 (occupied),  0.001000 (virtual)

 Number of pseudo-canonical orbitals per symmetry:    5   2
 Number of active natural orbitals per symmetry:      3   0

 Natural orbitals saved to record    2200.2 (Orbital set 3)

 Orbital spaces for UNO-CAS (Min. occupation: 0.020  Max. occupation: 1.980):

 Closed:        6   2
 Active:        1   0


 **********************************************************************************************************************************
 DATASETS  * FILE   NREC   LENGTH (MB)   RECORD NAMES
              1      19       19.46       500      610      700      900      950      970     1000      129      960     1100   
                                          VAR    BASINP    GEOM    SYMINP    ZMAT    AOBASIS   BASIS     P2S    ABASIS      S 
                                         1400     1410     1200     1210     1080     1600     1650     1300     1700   
                                           T        V       H0       H01     AOSYM     SMH    MOLCAS    ERIS     OPER   

              2       4        0.43       700     1000      520     2200   
                                         GEOM     BASIS   MCVARS     UHF  

 PROGRAMS   *        TOTAL       UHF       INT
 CPU TIMES  *         0.17      0.02      0.06
 REAL TIME  *         0.24 SEC
 DISK USED  *        24.18 MB      
 **********************************************************************************************************************************


1PROGRAM * UMP2 (Unrestricted open-shell)     Authors: H.-J. Werner, 2001


 Convergence thresholds:  THRVAR = 1.00D-08  THRDEN = 1.00D-06

 Number of core orbitals:           2 (   2   0 )
 Number of closed-shell orbitals:   6 (   4   2 )
 Number of active  orbitals:        1 (   1   0 )
 Number of external orbitals:      24 (  17   7 )

 Reading UHF information from record   2200.2

                               TOTAL       A-A         B-B         A-B
 Pair energies:            -0.33074044 -0.04736304 -0.03863503 -0.24474237
 Singles energies:          0.00000000  0.00000000  0.00000000

 Reference energy                    -150.163460296987
 Correlation energy                    -0.330740441218
 !UMP2 STATE 1.1 Energy              -150.494200738204


 **********************************************************************************************************************************
 DATASETS  * FILE   NREC   LENGTH (MB)   RECORD NAMES
              1      19       19.46       500      610      700      900      950      970     1000      129      960     1100   
                                          VAR    BASINP    GEOM    SYMINP    ZMAT    AOBASIS   BASIS     P2S    ABASIS      S 
                                         1400     1410     1200     1210     1080     1600     1650     1300     1700   
                                           T        V       H0       H01     AOSYM     SMH    MOLCAS    ERIS     OPER   

              2       4        0.43       700     1000      520     2200   
                                         GEOM     BASIS   MCVARS     UHF  

 PROGRAMS   *        TOTAL      UMP2       UHF       INT
 CPU TIMES  *         0.20      0.03      0.02      0.06
 REAL TIME  *         0.28 SEC
 DISK USED  *        24.18 MB      
 **********************************************************************************************************************************

 UMP2/cc-pVDZ energy=   -150.494200738204

        UMP2            UHF-SCF 
   -150.49420074   -150.16346030
 **********************************************************************************************************************************
 Variable memory released
