
 Primary working directories    : /scratch/kmoore
 Secondary working directories  : /scratch/kmoore
 Wavefunction directory         : /scratch/kmoore/
 Main file repository           : /scratch/kmoore/

 SHA1      : b6b3a4772808bb2d43777f23454e145ddfe12dc3
 NAME      : 2015.1.1
 ARCHNAME  : linux/x86_64
 FC        : /soft/mvapich2/2.2b_psm/intel-15.0/bin/mpif90
 BLASLIB   : -L/soft/intel/15.0.1/composer_xe_2015.0.090/mkl/lib/intel64 -lmkl_intel_ilp64 -lmkl_sequential -lmkl_core
 id        : anlgov

 Nodes     nprocs
 b431         3
 Number of processes for MPI-2 version of Molpro:   nprocs(total)=    4   nprocs(compute)=    3   nprocs(helper)=    1

 Using customized tuning parameters: mindgm=1; mindgv=20; mindgc=4; mindgr=1; noblas=0; minvec=7
 default implementation of scratch files=sf  

 angstrom
 Geometry = {
  C          0.0000000000        0.0696643962        0.0000000000
  H          0.0000000000        0.5136378019       -1.0016934426
  H          0.0000000000        0.5136378019        1.0016934426
 }
 
 set,charge=0
 set,spin=2
 set,scfsym=2
 
 basis=6-31G*
 
 {uhf}
 {ump2}

 Variables initialized (889), CPU time= 0.00 sec
 Commands  initialized (702), CPU time= 0.01 sec, 572 directives.
 Default parameters read. Elapsed time= 0.05 sec

 Checking input...
 Passed
1


                                         ***  PROGRAM SYSTEM MOLPRO  ***
                                       Copyright, TTI GmbH Stuttgart, 2015
                                    Version 2015.1 linked Jan  8 2016 07:59:11


 **********************************************************************************************************************************
 LABEL *                                                                                 
  64 bit mpp version                                                                     DATE: 20-Jan-19          TIME: 17:30:38  
 **********************************************************************************************************************************

 SHA1:             b6b3a4772808bb2d43777f23454e145ddfe12dc3
 **********************************************************************************************************************************
 ZUNIT=ANG
 

Geometry recognized as XYZ

 SETTING CHARGE         =     0.00000000D+00                                  
 SETTING SPIN           =         2.00000000                                  
 SETTING SCFSYM         =         2.00000000                                  

 Variable memory set to    8000000 words,  buffer space   230000 words

 SETTING BASIS          =    6-31G*


 Recomputing integrals since basis changed


 Using spherical harmonics

 Library entry C      S 6-31G                selected for orbital group  1
 Library entry C      P 6-31G                selected for orbital group  1
 Library entry C      D 6-31G*               selected for orbital group  1
 Library entry H      S 6-31G                selected for orbital group  2

1PROGRAM * SEWARD (Integral evaluation for generally contracted gaussian basis sets)     Author: Roland Lindh, 1990

 Geometry written to block  1 of record 700


 Point group  C2v 



 ATOMIC COORDINATES

 NR  ATOM    CHARGE       X              Y              Z

   1  C       6.00    0.000000000    0.131646629    0.000000000
   2  H       1.00    0.000000000    0.970634773   -1.892926267
   3  H       1.00    0.000000000    0.970634773    1.892926267

 Bond lengths in Bohr (Angstrom)

 1-2  2.070524320  1-3  2.070524320
     ( 1.095674285)     ( 1.095674285)

 Bond angles

  2-1-3  132.19197083

 NUCLEAR CHARGE:                    8
 NUMBER OF PRIMITIVE AOS:          36
 NUMBER OF SYMMETRY AOS:           35
 NUMBER OF CONTRACTIONS:           18   (   9A1  +   3B1  +   5B2  +   1A2  )
 NUMBER OF CORE ORBITALS:           1   (   1A1  +   0B1  +   0B2  +   0A2  )
 NUMBER OF VALENCE ORBITALS:        6   (   3A1  +   1B1  +   2B2  +   0A2  )


 NUCLEAR REPULSION ENERGY    6.05977474

 Eigenvalues of metric

         1 0.428E-01 0.298E+00 0.377E+00 0.515E+00 0.954E+00 0.100E+01 0.115E+01 0.164E+01
         2 0.430E+00 0.100E+01 0.157E+01
         3 0.554E-01 0.304E+00 0.595E+00 0.107E+01 0.265E+01
         4 0.100E+01


 Contracted 2-electron integrals neglected if value below      1.0D-11
 AO integral compression algorithm  1   Integral accuracy      1.0D-11

     0.786 MB (compressed) written to integral file (100.0%)

     Node minimum: 0.262 MB, node maximum: 0.262 MB


 NUMBER OF SORTED TWO-ELECTRON INTEGRALS:       1611.     BUFFER LENGTH:  32768
 NUMBER OF SEGMENTS:   1  SEGMENT LENGTH:       1611      RECORD LENGTH: 524288

 Memory used in sort:       0.56 MW

 SORT1 READ        6192. AND WROTE        1347. INTEGRALS IN      1 RECORDS. CPU TIME:     0.01 SEC, REAL TIME:     0.01 SEC
 SORT2 READ        3938. AND WROTE        4885. INTEGRALS IN      3 RECORDS. CPU TIME:     0.00 SEC, REAL TIME:     0.00 SEC

 Node minimum:        1508.  Node maximum:        1766. integrals

 OPERATOR DM      FOR CENTER  0  COORDINATES:    0.000000    0.000000    0.000000


 **********************************************************************************************************************************
 DATASETS  * FILE   NREC   LENGTH (MB)   RECORD NAMES
              1      18       19.10       500      610      700      900      950      970     1000      129      960     1100   
                                          VAR    BASINP    GEOM    SYMINP    ZMAT    AOBASIS   BASIS     P2S    ABASIS      S 
                                         1400     1410     1200     1210     1080     1600     1650     1700   
                                           T        V       H0       H01     AOSYM     SMH    MOLCAS    OPER   

 PROGRAMS   *        TOTAL       INT
 CPU TIMES  *         0.12      0.02
 REAL TIME  *         0.20 SEC
 DISK USED  *        12.63 MB      
 GA USED    *         0.00 MB       (max)       0.00 MB       (current)
 **********************************************************************************************************************************

1PROGRAM * UHF-SCF       Authors: W. Meyer, H.-J. Werner


 NUMBER OF ELECTRONS:       5+    3-    SPACE SYMMETRY=2    SPIN SYMMETRY: Triplet 
 CONVERGENCE THRESHOLDS:    1.00E-05 (Density)    1.00E-07 (Energy)
 MAX. NUMBER OF ITERATIONS:       60
 INTERPOLATION TYPE:            DIIS
 INTERPOLATION STEPS:              2 (START)      1 (STEP)
 LEVEL SHIFTS:                  0.20 (ALPHA)   0.20 (BETA) 



 Orbital guess generated from atomic densities. Full valence occupancy:    4   1   2   0

 Molecular orbital dump at record        2200.2

 Initial alpha occupation   3   1   1   0
 Initial beta  occupation   2   0   1   0

 ITERATION    DDIFF          GRAD             ENERGY        2-EL.EN.            DIPOLE MOMENTS         DIIS
    1      0.000D+00      0.000D+00       -38.90642676     37.143116    0.00000    0.33044    0.00000    0
    2      0.867D-02      0.109D-01       -38.91625515     37.435981    0.00000    0.30925    0.00000    1
    3      0.600D-02      0.495D-02       -38.91958444     37.524206    0.00000    0.27088    0.00000    2
    4      0.280D-02      0.199D-02       -38.92021995     37.516439    0.00000    0.24391    0.00000    3
    5      0.179D-02      0.825D-03       -38.92037274     37.516049    0.00000    0.22800    0.00000    4
    6      0.468D-03      0.264D-03       -38.92038658     37.518328    0.00000    0.22636    0.00000    5
    7      0.262D-03      0.933D-04       -38.92038837     37.518661    0.00000    0.22666    0.00000    6
    8      0.105D-03      0.327D-04       -38.92038858     37.518724    0.00000    0.22709    0.00000    7
    9      0.265D-04      0.956D-05       -38.92038860     37.518706    0.00000    0.22720    0.00000    7
   10      0.502D-05      0.225D-05       -38.92038860     37.518722    0.00000    0.22722    0.00000    7
   11      0.126D-05      0.507D-06       -38.92038860     37.518726    0.00000    0.22722    0.00000    6
 
 Final alpha occupancy:   3   1   1   0
 Final beta  occupancy:   2   0   1   0

 !UHF STATE 1.2 Energy                -38.920388600296
 Nuclear energy                         6.05977474
 One-electron energy                  -63.73952646
 Two-electron energy                   18.75936312
 Virial quotient                       -1.00027497
 !UHF STATE 1.2 Dipole moment           0.00000000     0.22721885     0.00000000
 Dipole moment /Debye                   0.00000000     0.57749490     0.00000000

 Orbital energies for positive spin:

         1.1          2.1          3.1          4.1          5.1
    -11.262026    -0.941495    -0.449260     0.248556     0.720912

         1.2          2.2          3.2
     -0.407779     0.729391     1.913645

         1.3          2.3          3.3
     -0.606304     0.322537     0.784570

         1.4
      1.904143

 Orbital energies for negative spin:

         1.1          2.1          3.1          4.1          5.1
    -11.212746    -0.766931     0.146359     0.283527     0.819128

         1.2          2.2          3.2
      0.176332     0.900162     2.099691

         1.3          2.3          3.3
     -0.574254     0.358498     0.818309

         1.4
      2.023723

 HOMO      1.2    -0.407779 =     -11.0962eV
 LUMO     -3.1     0.146359 =       3.9826eV
 LUMO-HOMO         0.554138 =      15.0789eV

 EXPECTATION VALUE OF S**2:             2.01623134

 Occupation number threshold for canonical orbitals:  1.999000 (occupied),  0.001000 (virtual)

 Number of pseudo-canonical orbitals per symmetry:    1   0   0   0
 Number of active natural orbitals per symmetry:      3   1   2   0

 Natural orbitals saved to record    2200.2 (Orbital set 3)

 Orbital spaces for UNO-CAS (Min. occupation: 0.020  Max. occupation: 1.980):

 Closed:        2   0   1   0
 Active:        1   1   0   0


 **********************************************************************************************************************************
 DATASETS  * FILE   NREC   LENGTH (MB)   RECORD NAMES
              1      18       19.10       500      610      700      900      950      970     1000      129      960     1100   
                                          VAR    BASINP    GEOM    SYMINP    ZMAT    AOBASIS   BASIS     P2S    ABASIS      S 
                                         1400     1410     1200     1210     1080     1600     1650     1700   
                                           T        V       H0       H01     AOSYM     SMH    MOLCAS    OPER   

              2       4        0.41       700     1000      520     2200   
                                         GEOM     BASIS   MCVARS     UHF  

 PROGRAMS   *        TOTAL       UHF       INT
 CPU TIMES  *         0.16      0.04      0.02
 REAL TIME  *         0.24 SEC
 DISK USED  *        12.63 MB      
 SF USED    *         0.04 MB      
 GA USED    *         0.00 MB       (max)       0.00 MB       (current)
 **********************************************************************************************************************************


1PROGRAM * UMP2 (Unrestricted open-shell)     Authors: H.-J. Werner, 2001


 Convergence thresholds:  THRVAR = 1.00D-08  THRDEN = 1.00D-06

 Number of core orbitals:           1 (   1   0   0   0 )
 Number of closed-shell orbitals:   2 (   1   0   1   0 )
 Number of active  orbitals:        2 (   1   1   0   0 )
 Number of external orbitals:      13 (   6   2   4   1 )

 Reading UHF information from record   2200.2

                               TOTAL       A-A         B-B         A-B
 Pair energies:            -0.08141507 -0.01760436 -0.00160170 -0.06220901
 Singles energies:          0.00000000  0.00000000  0.00000000

 Reference energy                     -38.920388600296
 Correlation energy                    -0.081415069759
 !UMP2 STATE 1.2 Energy               -39.001803670055


 **********************************************************************************************************************************
 DATASETS  * FILE   NREC   LENGTH (MB)   RECORD NAMES
              1      18       19.10       500      610      700      900      950      970     1000      129      960     1100   
                                          VAR    BASINP    GEOM    SYMINP    ZMAT    AOBASIS   BASIS     P2S    ABASIS      S 
                                         1400     1410     1200     1210     1080     1600     1650     1700   
                                           T        V       H0       H01     AOSYM     SMH    MOLCAS    OPER   

              2       4        0.41       700     1000      520     2200   
                                         GEOM     BASIS   MCVARS     UHF  

 PROGRAMS   *        TOTAL      UMP2       UHF       INT
 CPU TIMES  *         0.18      0.02      0.04      0.02
 REAL TIME  *         0.28 SEC
 DISK USED  *        12.63 MB      
 SF USED    *         0.04 MB      
 GA USED    *         0.00 MB       (max)       0.00 MB       (current)
 **********************************************************************************************************************************

 UMP2/6-31G* energy=    -39.001803670055

        UMP2            UHF-SCF 
    -39.00180367    -38.92038860
 **********************************************************************************************************************************
 Variable memory released
