
 Primary working directories    : /scratch/kmoore
 Secondary working directories  : /scratch/kmoore
 Wavefunction directory         : /scratch/kmoore/
 Main file repository           : /scratch/kmoore/

 SHA1      : b6b3a4772808bb2d43777f23454e145ddfe12dc3
 NAME      : 2015.1.1
 ARCHNAME  : linux/x86_64
 FC        : /soft/mvapich2/2.2b_psm/intel-15.0/bin/mpif90
 BLASLIB   : -L/soft/intel/15.0.1/composer_xe_2015.0.090/mkl/lib/intel64 -lmkl_intel_ilp64 -lmkl_sequential -lmkl_core
 id        : anlgov

 Nodes     nprocs
 b457         7
 Number of processes for MPI-2 version of Molpro:   nprocs(total)=    8   nprocs(compute)=    7   nprocs(helper)=    1

 Using customized tuning parameters: mindgm=1; mindgv=20; mindgc=4; mindgr=1; noblas=0; minvec=7
 default implementation of scratch files=sf  

 memory,850,m
 gthresh,energy=1.0d-10,orbital=1.0d-10,oneint=1.d-12,twoint=1.d-14
 
 nosym
 angstrom
 Geometry = {
 H
 O 1 r1
 C 2 r2 1 a1
 H 3 r3 2 a2 1 d1
 H 3 r4 4 a3 2 d2
 H 3 r4 4 a3 2 -d2
 }
 
 r1 =   0.992
 r2 =   1.398
 r3 =   1.109
 r4 =   1.112
 a1 =   106.0
 a2 =   108.9
 a3 =   108.2
 d2 =   119.9
 d1 =     0.0
 
 basis=cc-pVDZ
 {rks,b3lyp3,maxit=300}
 
 {optg,root=2}
 
 {freq
  print,hessian}
 

 Variables initialized (889), CPU time= 0.00 sec
 Commands  initialized (702), CPU time= 0.01 sec, 572 directives.
 Default parameters read. Elapsed time= 0.06 sec

 Checking input...
 Passed
1


                                         ***  PROGRAM SYSTEM MOLPRO  ***
                                       Copyright, TTI GmbH Stuttgart, 2015
                                    Version 2015.1 linked Jan  8 2016 07:59:11


 **********************************************************************************************************************************
 LABEL *                                                                                 
  64 bit mpp version                                                                     DATE: 27-Jan-19          TIME: 13:36:26  
 **********************************************************************************************************************************

 SHA1:             b6b3a4772808bb2d43777f23454e145ddfe12dc3
 **********************************************************************************************************************************

 THRESHOLDS:

 ZERO    =  1.00D-12  ONEINT  =  1.00D-12  TWOINT  =  1.00D-14  PREFAC  =  1.00D-14  LOCALI  =  1.00D-09  EORDER  =  1.00D-04
 ENERGY  =  1.00D-10  ETEST   =  0.00D+00  EDENS   =  0.00D+00  THRDEDEF=  1.00D-06  GRADIENT=  1.00D-02  STEP    =  1.00D-03
 ORBITAL =  1.00D-10  CIVEC   =  1.00D-05  COEFF   =  1.00D-04  PRINTCI =  5.00D-02  PUNCHCI =  9.90D+01  OPTGRAD =  3.00D-04
 OPTENERG=  1.00D-06  OPTSTEP =  3.00D-04  THRGRAD =  1.00D-10  COMPRESS=  1.00D-11  VARMIN  =  1.00D-07  VARMAX  =  1.00D-03
 THRDOUB =  0.00D+00  THRDIV  =  1.00D-05  THRRED  =  1.00D-07  THRPSP  =  1.00D+00  THRDC   =  1.00D-10  THRCS   =  1.00D-10
 THRNRM  =  1.00D-08  THREQ   =  0.00D+00  THRDE   =  1.00D+00  THRREF  =  1.00D-05  SPARFAC =  1.00D+00  THRDLP  =  1.00D-07
 THRDIA  =  1.00D-10  THRDLS  =  1.00D-07  THRGPS  =  0.00D+00  THRKEX  =  0.00D+00  THRDIS  =  2.00D-01  THRVAR  =  1.00D-10
 THRLOC  =  1.00D-06  THRGAP  =  1.00D-06  THRLOCT = -1.00D+00  THRGAPT = -1.00D+00  THRORB  =  1.00D-06  THRMLTP =  0.00D+00
 THRCPQCI=  1.00D-10  KEXTA   =  0.00D+00  THRCOARS=  0.00D+00  SYMTOL  =  1.00D-06  GRADTOL =  1.00D-06  THROVL  =  1.00D-08
 THRORTH =  1.00D-08  GRID    =  1.00D-06  GRIDMAX =  1.00D-03  DTMAX   =  0.00D+00  THROCCDE=  1.00D-01  THROCCDE=  1.00D-01



 Variable memory set to  850000000 words,  buffer space   230000 words

 ZSYMEL=NOSYM
 ZUNIT=ANG
 
 SETTING R1             =         0.99200000                                  
 SETTING R2             =         1.39800000                                  
 SETTING R3             =         1.10900000                                  
 SETTING R4             =         1.11200000                                  
 SETTING A1             =       106.00000000                                  
 SETTING A2             =       108.90000000                                  
 SETTING A3             =       108.20000000                                  
 SETTING D2             =       119.90000000                                  
 SETTING D1             =     0.00000000D+00                                  
 SETTING BASIS          =    CC-PVDZ


 Recomputing integrals since basis changed


 Using spherical harmonics

 Library entry H      S cc-pVDZ              selected for orbital group  1
 Library entry H      P cc-pVDZ              selected for orbital group  1
 Library entry O      S cc-pVDZ              selected for orbital group  2
 Library entry O      P cc-pVDZ              selected for orbital group  2
 Library entry O      D cc-pVDZ              selected for orbital group  2
 Library entry C      S cc-pVDZ              selected for orbital group  3
 Library entry C      P cc-pVDZ              selected for orbital group  3
 Library entry C      D cc-pVDZ              selected for orbital group  3

1PROGRAM * SEWARD (Integral evaluation for generally contracted gaussian basis sets)     Author: Roland Lindh, 1990

 Geometry written to block  1 of record 700

 Orientation using atomic masses  
 Molecule type: Asymmetric top
 Rotational constants:      25.4311341     24.5000181    122.1794308 GHz  (calculated with average atomic masses)

 Point group  C1  



 ATOMIC COORDINATES

 NR  ATOM    CHARGE       X              Y              Z

   1  H       1.00   -1.637012056    0.000000000   -1.903142884
   2  O       8.00    0.132783006    0.000000000   -1.285096143
   3  C       6.00   -0.016998921    0.000000000    1.352491534
   4  H       1.00   -2.035014061    0.000000000    1.917823007
   5  H       1.00    0.883439304    1.730540856    2.133656134
   6  H       1.00    0.883439304   -1.730540856    2.133656134

 Bond lengths in Bohr (Angstrom)

 1-2  1.874608316  2-3  2.641837122  3-4  2.095706272  3-5  2.101375451  3-6  2.101375451
     ( 0.992000000)     ( 1.398000000)     ( 1.109000000)     ( 1.112000000)     ( 1.112000000)

 Bond angles

  1-2-3  106.00000000   2-3-4  108.90000000   2-3-5  110.29461205   2-3-6  110.29461205

  4-3-5  108.20000000   4-3-6  108.20000000   5-3-6  110.87900723

 NUCLEAR CHARGE:                   18
 NUMBER OF PRIMITIVE AOS:          82
 NUMBER OF SYMMETRY AOS:           80
 NUMBER OF CONTRACTIONS:           48   (  48A   )
 NUMBER OF CORE ORBITALS:           2   (   2A   )
 NUMBER OF VALENCE ORBITALS:       12   (  12A   )


 NUCLEAR REPULSION ENERGY   40.35888588


 Eigenvalues of metric

         1 0.960E-02 0.177E-01 0.364E-01 0.398E-01 0.410E-01 0.484E-01 0.517E-01 0.567E-01


 Contracted 2-electron integrals neglected if value below      1.0D-14
 AO integral compression algorithm  1   Integral accuracy      1.0D-14

     6.291 MB (compressed) written to integral file ( 92.5%)

     Node minimum: 0.786 MB, node maximum: 1.049 MB


 NUMBER OF SORTED TWO-ELECTRON INTEGRALS:      99372.     BUFFER LENGTH:  32768
 NUMBER OF SEGMENTS:   1  SEGMENT LENGTH:      99372      RECORD LENGTH: 524288

 Memory used in sort:       0.66 MW

 SORT1 READ      839336. AND WROTE       80967. INTEGRALS IN      1 RECORDS. CPU TIME:     0.01 SEC, REAL TIME:     0.02 SEC
 SORT2 READ      555544. AND WROTE      692076. INTEGRALS IN     21 RECORDS. CPU TIME:     0.00 SEC, REAL TIME:     0.01 SEC

 Node minimum:       98364.  Node maximum:       99372. integrals

 OPERATOR DM      FOR CENTER  0  COORDINATES:    0.000000    0.000000    0.000000


 **********************************************************************************************************************************
 DATASETS  * FILE   NREC   LENGTH (MB)   RECORD NAMES
              1      18       19.22       500      610      700      900      950      970     1000      129      960     1100   
                                          VAR    BASINP    GEOM    SYMINP    ZMAT    AOBASIS   BASIS     P2S    ABASIS      S 
                                         1400     1410     1200     1210     1080     1600     1650     1700   
                                           T        V       H0       H01     AOSYM     SMH    MOLCAS    OPER   

 PROGRAMS   *        TOTAL       INT
 CPU TIMES  *         0.39      0.27
 REAL TIME  *         0.79 SEC
 DISK USED  *        34.02 MB      
 GA USED    *         0.00 MB       (max)       0.00 MB       (current)
 **********************************************************************************************************************************

 Density functional group B3LYP3=B88+DIRAC+LYP+VWN3
 Functional: B88(Automatically generated (new) B88)                            Gradient terms: 1
 Functional: DIRAC(Automatically generated (new) DIRAC)                        Gradient terms: 0
 Functional: LYP(Automatically generated (new) LYP)                            Gradient terms: 1
 Functional: VWN3(Automatically generated (new) VWN3)                          Gradient terms: 0
 Use grid at  1800.2
 

 Exact exchange will be calculated, factor:  0.2000

 Functional: B88                       Factor:  0.7200
 Functional: DIRAC                     Factor:  0.0800
 Functional: LYP                       Factor:  0.8100
 Functional: VWN3                      Factor:  0.1900
 
 Generated new metagrid on record  1800.2 with target accuracy 1.0D-06 and 21192 points in CPU time    0.1
 Computed new grid on record 1800.1 in CPU time    0.1
   42186 words reserved for DFT integration

 PROGRAM * RKS-SCF (Restricted closed shell Kohn-Sham)     Authors: W. Meyer, H.-J. Werner, P.J. Knowles, 1993

 NUMBER OF ELECTRONS:       9+    9-    SPACE SYMMETRY=1    SPIN SYMMETRY: Singlet 
 CONVERGENCE THRESHOLDS:    1.00E-10 (Density)    1.00E-10 (Energy)
 MAX. NUMBER OF ITERATIONS:      300
 INTERPOLATION TYPE:            DIIS
 INTERPOLATION STEPS:              2 (START)      1 (STEP)
 LEVEL SHIFTS:                  0.00 (CLOSED)  0.00 (OPEN) 



 Use fine grid record 1800.2 for energy threshold  1.0D-06
 Orbital guess generated from atomic densities. Full valence occupancy:   14

 Molecular orbital dump at record        2100.2

 Initial occupancy:   9

 ITERATION    DDIFF          GRAD             ENERGY        2-EL.EN.            DIPOLE MOMENTS         DIIS   ORB.
    1      0.000D+00      0.000D+00      -115.64953429    192.660579   -0.97473    0.00000    0.45771    0    start
    2      0.000D+00      0.147D-01      -115.60254778    180.419413   -0.14680   -0.00000   -0.07871    1    diag
    3      0.481D-01      0.201D-01      -115.71762023    187.324040   -0.60702   -0.00000    0.29361    2    diag
    4      0.261D-01      0.166D-02      -115.71833186    187.358752   -0.60541   -0.00000    0.25373    3    diag
    5      0.308D-02      0.644D-03      -115.71845373    187.303524   -0.60597   -0.00000    0.25981    4    diag
    6      0.971D-03      0.839D-04      -115.71845587    187.320205   -0.60569   -0.00000    0.26030    5    diag
    7      0.122D-03      0.585D-05      -115.71845588    187.321575   -0.60604   -0.00000    0.26031    6    diag
    8      0.889D-05      0.959D-06      -115.71845588    187.321731   -0.60597   -0.00000    0.26033    7    diag
    9      0.190D-05      0.163D-06      -115.71845588    187.321712   -0.60598   -0.00000    0.26033    8    diag
   10      0.257D-06      0.235D-07      -115.71845588    187.321711   -0.60598   -0.00000    0.26033    9    orth
   11      0.354D-07      0.246D-08      -115.71845588    187.321711   -0.60598   -0.00000    0.26033    9    diag
   12      0.493D-08      0.354D-09      -115.71845588    187.321711   -0.60598   -0.00000    0.26033    9    diag
   13      0.546D-09      0.327D-10      -115.71845588    187.321711   -0.60598   -0.00000    0.26033    9    diag
   14      0.735D-10      0.633D-11      -115.71845588    187.321711   -0.60598   -0.00000    0.26033    0    orth

 Final occupancy:   9

 !RKS STATE 1.1 Energy               -115.718455884836
 Nuclear energy                        40.35888588
 One-electron energy                 -237.18847461
 Two-electron energy                   93.66085534
 SCF exchange energy                  -14.83114122     Factor= 0.2000
 Density functional                   -12.54972249     B88=-14.87139474 DIRAC=-13.41018803 LYP= -0.59576353 VWN3= -1.51018306
 Virial quotient                       -1.00659296
 !RKS STATE 1.1 Dipole moment          -0.60597962    -0.00000000     0.26032616
 Dipole moment /Debye                  -1.54014568    -0.00000000     0.66163977

 Orbital energies:

         1.1          2.1          3.1          4.1          5.1          6.1          7.1          8.1          9.1         10.1
    -19.128774   -10.226965    -1.012496    -0.668555    -0.500672    -0.434714    -0.419935    -0.322453    -0.261061     0.042504

        11.1
      0.091027

 HOMO      9.1    -0.261061 =      -7.1038eV
 LUMO     10.1     0.042504 =       1.1566eV
 LUMO-HOMO         0.303566 =       8.2604eV


 **********************************************************************************************************************************
 DATASETS  * FILE   NREC   LENGTH (MB)   RECORD NAMES
              1      19       19.22       500      610      700      900      950      970     1000      129      960     1100   
                                          VAR    BASINP    GEOM    SYMINP    ZMAT    AOBASIS   BASIS     P2S    ABASIS      S 
                                         1400     1410     1200     1210     1080     1600     1650     1700     1800   
                                           T        V       H0       H01     AOSYM     SMH    MOLCAS    OPER     GRID   

              2       5        0.48       700     1000      520     1800     2100   
                                         GEOM     BASIS   MCVARS    GRID      RKS  

 PROGRAMS   *        TOTAL       RKS       INT
 CPU TIMES  *         0.68      0.29      0.27
 REAL TIME  *         1.10 SEC
 DISK USED  *       173.39 MB      
 SF USED    *         0.01 MB      
 GA USED    *         0.74 MB       (max)       0.74 MB       (current)
 **********************************************************************************************************************************


 PROGRAM * OPT (Geometry optimization)     Authors: F. Eckert and H.-J. Werner


 Running default procedure: RKS-SCF000

 Geometry optimization using default procedure for command RKS-SCF

 Geometry written to block  1 of record 700
1PROGRAM * ALASKA (Gradient of the energy)     Author: R. Lindh

 Orbitals from record         2100.2

 Number of closed-shell orbitals:  9 (  9 )
 Number of occupied orbitals:      9 (  9 )

 Number of electrons= 18     Singlet     Space symmetry=1      Wavefunction type: CLOSED          

 Gradient contributions of integration grid neglected (GRIDGRAD=0).
 Computed new grid on record 1800.1 in CPU time    0.0

 DFT GRADIENT, EXFAC=     0.200

 RKS GRADIENT FOR STATE 1.1

 Atom          dE/dx               dE/dy               dE/dz

   1        -0.025612274         0.000000000        -0.004311693
   2         0.021387355         0.000000000         0.026989286
   3         0.008746853         0.000000000        -0.010285924
   4        -0.004288551         0.000000000        -0.008393107
   5        -0.000112182         0.005440478        -0.002005607
   6        -0.000112182        -0.005440478        -0.002005607

 Nuclear force contribution to virial =         0.006933047
 

 Recomputing wavefunction at reference geometry

 Density functional group B3LYP3=B88+DIRAC+LYP+VWN3
 Functional: B88(Automatically generated (new) B88)                            Gradient terms: 1
 Functional: DIRAC(Automatically generated (new) DIRAC)                        Gradient terms: 0
 Functional: LYP(Automatically generated (new) LYP)                            Gradient terms: 1
 Functional: VWN3(Automatically generated (new) VWN3)                          Gradient terms: 0
 Use grid at  1800.2
 

 Exact exchange will be calculated, factor:  0.2000

 Functional: B88                       Factor:  0.7200
 Functional: DIRAC                     Factor:  0.0800
 Functional: LYP                       Factor:  0.8100
 Functional: VWN3                      Factor:  0.1900
 
   42186 words reserved for DFT integration

 PROGRAM * RKS-SCF (Restricted closed shell Kohn-Sham)     Authors: W. Meyer, H.-J. Werner, P.J. Knowles, 1993

 NUMBER OF ELECTRONS:       9+    9-    SPACE SYMMETRY=1    SPIN SYMMETRY: Singlet 
 CONVERGENCE THRESHOLDS:    1.00E-10 (Density)    1.00E-10 (Energy)
 MAX. NUMBER OF ITERATIONS:      300
 INTERPOLATION TYPE:            DIIS
 INTERPOLATION STEPS:              2 (START)      1 (STEP)
 LEVEL SHIFTS:                  0.00 (CLOSED)  0.00 (OPEN) 



 Use fine grid record 1800.2 for energy threshold  1.0D-06
 Molecular orbitals read from record     2100.2  Type=RKS/CANONICAL (state 1.1)

 Molecular orbital dump at record        2100.2

 ITERATION    DDIFF          GRAD             ENERGY        2-EL.EN.            DIPOLE MOMENTS         DIIS   ORB.
    1      0.000D+00      0.000D+00      -115.71845588    187.321711   -0.60598   -0.00000    0.26033    0    start
    2      0.000D+00      0.610D-11      -115.71845588    187.321711   -0.60598   -0.00000    0.26033    0    orth

 Final occupancy:   9

 !RKS STATE 1.1 Energy               -115.718455884835
 Nuclear energy                        40.35888588
 One-electron energy                 -237.18847461
 Two-electron energy                   93.66085534
 SCF exchange energy                  -14.83114122     Factor= 0.2000
 Density functional                   -12.54972249     B88=-14.87139474 DIRAC=-13.41018803 LYP= -0.59576353 VWN3= -1.51018306
 Virial quotient                       -1.00659296
 !RKS STATE 1.1 Dipole moment          -0.60597962    -0.00000000     0.26032616
 Dipole moment /Debye                  -1.54014568    -0.00000000     0.66163977

 Orbital energies:

         1.1          2.1          3.1          4.1          5.1          6.1          7.1          8.1          9.1         10.1
    -19.128774   -10.226965    -1.012496    -0.668555    -0.500672    -0.434714    -0.419935    -0.322453    -0.261061     0.042504

        11.1
      0.091027

 HOMO      9.1    -0.261061 =      -7.1038eV
 LUMO     10.1     0.042504 =       1.1566eV
 LUMO-HOMO         0.303566 =       8.2604eV


 **********************************************************************************************************************************
 DATASETS  * FILE   NREC   LENGTH (MB)   RECORD NAMES
              1      19       19.22       500      610      700      900      950      970     1000      129      960     1100   
                                          VAR    BASINP    GEOM    SYMINP    ZMAT    AOBASIS   BASIS     P2S    ABASIS      S 
                                         1400     1410     1200     1210     1080     1600     1650     1700     1800   
                                           T        V       H0       H01     AOSYM     SMH    MOLCAS    OPER     GRID   

              2       6        0.53       700     1000      520     1800     2100     5300   
                                         GEOM     BASIS   MCVARS    GRID      RKS     HESS   

 PROGRAMS   *        TOTAL       RKS       RKS       INT
 CPU TIMES  *         2.75      0.03      0.29      0.27
 REAL TIME  *         4.19 SEC
 DISK USED  *       173.39 MB      
 SF USED    *         0.01 MB      
 GA USED    *         0.74 MB       (max)       0.74 MB       (current)
 **********************************************************************************************************************************

 Computing gradient at reference geometry
1PROGRAM * ALASKA (Gradient of the energy)     Author: R. Lindh

 Orbitals from record         2100.2

 Number of closed-shell orbitals:  9 (  9 )
 Number of occupied orbitals:      9 (  9 )

 Number of electrons= 18     Singlet     Space symmetry=1      Wavefunction type: CLOSED          

 Gradient contributions of integration grid neglected (GRIDGRAD=0).

 DFT GRADIENT, EXFAC=     0.200

 RKS GRADIENT FOR STATE 1.1

 Atom          dE/dx               dE/dy               dE/dz

   1        -0.025612274         0.000000000        -0.004311693
   2         0.021387355         0.000000000         0.026989286
   3         0.008746853         0.000000000        -0.010285924
   4        -0.004288551         0.000000000        -0.008393107
   5        -0.000112182         0.005440478        -0.002005607
   6        -0.000112182        -0.005440478        -0.002005607

 Nuclear force contribution to virial =         0.006933047

 Freezing grid

 Numerically approximating hessian using forward gradient differences
 Task   1   Incrementing variable R1    by   0.010 AU
 Task   2   Incrementing variable R2    by   0.010 AU
 Task   3   Incrementing variable A1    by   1.000 DEG
 Task   4   Incrementing variable R3    by   0.010 AU
 Task   5   Incrementing variable A2    by   1.000 DEG
 Task   6   Incrementing variable D1    by   0.500 DEG
 Task   7   Incrementing variable R4    by   0.010 AU
 Task   8   Incrementing variable A3    by   1.000 DEG
 Task   9   Incrementing variable D2    by   1.000 DEG

 Task list generated. Total number of displacements:      9

 Starting task   1.  CPU=     0.00 sec, Elapsed=     0.00 sec
 Incrementing variable R1               by  0.005292 ANG   to    0.997292 ANG


 Recomputing integrals since geometry changed

1PROGRAM * SEWARD (Integral evaluation for generally contracted gaussian basis sets)     Author: Roland Lindh, 1990

 Geometry written to block  1 of record 700

 Orientation using atomic masses  
 Molecule type: Asymmetric top
 Rotational constants:      25.4265948     24.4854253    121.9216404 GHz  (calculated with average atomic masses)

 Point group  C1  



 ATOMIC COORDINATES

 NR  ATOM    CHARGE       X              Y              Z

   1  H       1.00   -1.645355611    0.000000000   -1.907026932
   2  O       8.00    0.133619360    0.000000000   -1.284936457
   3  C       6.00   -0.017269705    0.000000000    1.352588115
   4  H       1.00   -2.035521970    0.000000000    1.917072459
   5  H       1.00    0.882840541    1.730540856    2.134130612
   6  H       1.00    0.882840541   -1.730540856    2.134130612

 Bond lengths in Bohr (Angstrom)

 1-2  1.884608316  2-3  2.641837122  3-4  2.095706272  3-5  2.101375451  3-6  2.101375451
     ( 0.997291772)     ( 1.398000000)     ( 1.109000000)     ( 1.112000000)     ( 1.112000000)

 Bond angles

  1-2-3  106.00000000   2-3-4  108.90000000   2-3-5  110.29461205   2-3-6  110.29461205

  4-3-5  108.20000000   4-3-6  108.20000000   5-3-6  110.87900723

 NUCLEAR CHARGE:                   18
 NUMBER OF PRIMITIVE AOS:          82
 NUMBER OF SYMMETRY AOS:           80
 NUMBER OF CONTRACTIONS:           48   (  48A   )
 NUMBER OF CORE ORBITALS:           2   (   2A   )
 NUMBER OF VALENCE ORBITALS:       12   (  12A   )


 NUCLEAR REPULSION ENERGY   40.33226966


 Eigenvalues of metric

         1 0.960E-02 0.177E-01 0.365E-01 0.398E-01 0.412E-01 0.484E-01 0.518E-01 0.571E-01


 Contracted 2-electron integrals neglected if value below      1.0D-14
 AO integral compression algorithm  1   Integral accuracy      1.0D-14

     6.554 MB (compressed) written to integral file ( 88.6%)

     Node minimum: 0.786 MB, node maximum: 1.049 MB


 NUMBER OF SORTED TWO-ELECTRON INTEGRALS:      99372.     BUFFER LENGTH:  32768
 NUMBER OF SEGMENTS:   1  SEGMENT LENGTH:      99372      RECORD LENGTH: 524288

 Memory used in sort:       0.66 MW

 SORT1 READ      839336. AND WROTE       80967. INTEGRALS IN      1 RECORDS. CPU TIME:     0.01 SEC, REAL TIME:     0.03 SEC
 SORT2 READ      555544. AND WROTE      692076. INTEGRALS IN     21 RECORDS. CPU TIME:     0.01 SEC, REAL TIME:     0.00 SEC

 Node minimum:       98364.  Node maximum:       99372. integrals

 OPERATOR DM      FOR CENTER  0  COORDINATES:    0.000000    0.000000    0.000000
 Density functional group B3LYP3=B88+DIRAC+LYP+VWN3
 Functional: B88(Automatically generated (new) B88)                            Gradient terms: 1
 Functional: DIRAC(Automatically generated (new) DIRAC)                        Gradient terms: 0
 Functional: LYP(Automatically generated (new) LYP)                            Gradient terms: 1
 Functional: VWN3(Automatically generated (new) VWN3)                          Gradient terms: 0
 Use grid at  1800.2
 

 Exact exchange will be calculated, factor:  0.2000

 Functional: B88                       Factor:  0.7200
 Functional: DIRAC                     Factor:  0.0800
 Functional: LYP                       Factor:  0.8100
 Functional: VWN3                      Factor:  0.1900
 
 Computed new grid on record 1800.1 in CPU time    0.0
   42186 words reserved for DFT integration

 PROGRAM * RKS-SCF (Restricted closed shell Kohn-Sham)     Authors: W. Meyer, H.-J. Werner, P.J. Knowles, 1993

 NUMBER OF ELECTRONS:       9+    9-    SPACE SYMMETRY=1    SPIN SYMMETRY: Singlet 
 CONVERGENCE THRESHOLDS:    1.00E-10 (Density)    1.00E-10 (Energy)
 MAX. NUMBER OF ITERATIONS:      300
 INTERPOLATION TYPE:            DIIS
 INTERPOLATION STEPS:              2 (START)      1 (STEP)
 LEVEL SHIFTS:                  0.00 (CLOSED)  0.00 (OPEN) 

 Number of closed-shell orbitals:    9 (   9 )


 Use fine grid record 1800.2 for energy threshold  1.0D-06
 Molecular orbitals read from record     2100.2  Type=RKS/CANONICAL (state 1.1)

 Molecular orbital dump at record        2100.1

 ITERATION    DDIFF          GRAD             ENERGY        2-EL.EN.            DIPOLE MOMENTS         DIIS   ORB.
    1      0.000D+00      0.000D+00      -115.71817075    187.286934   -0.60803   -0.00000    0.25967    0    start
    2      0.000D+00      0.141D-03      -115.71817807    187.264193   -0.60786   -0.00000    0.25789    1    diag
    3      0.523D-03      0.539D-04      -115.71817823    187.285959   -0.60797   -0.00000    0.26061    2    diag
    4      0.114D-03      0.488D-04      -115.71817882    187.274657   -0.60724   -0.00000    0.25956    3    diag
    5      0.609D-04      0.663D-05      -115.71817883    187.275425   -0.60750   -0.00000    0.25955    4    diag
    6      0.888D-05      0.466D-06      -115.71817884    187.275514   -0.60747   -0.00000    0.25957    5    diag
    7      0.987D-06      0.123D-06      -115.71817884    187.275480   -0.60747   -0.00000    0.25957    6    diag
    8      0.279D-06      0.525D-07      -115.71817884    187.275498   -0.60747   -0.00000    0.25957    7    orth
    9      0.984D-07      0.924D-08      -115.71817884    187.275496   -0.60747   -0.00000    0.25957    8    diag
   10      0.182D-07      0.891D-09      -115.71817884    187.275496   -0.60747   -0.00000    0.25957    9    diag
   11      0.151D-08      0.118D-09      -115.71817884    187.275496   -0.60747   -0.00000    0.25957    9    diag
   12      0.169D-09      0.122D-10      -115.71817884    187.275496   -0.60747   -0.00000    0.25957    9    diag
   13      0.179D-10      0.169D-11      -115.71817884    187.275496   -0.60747   -0.00000    0.25957    0    orth

 Final occupancy:   9

 !RKS STATE 1.1 Energy               -115.718178835072
 Nuclear energy                        40.33226966
 One-electron energy                 -237.14031848
 Two-electron energy                   93.63774793
 SCF exchange energy                  -14.82850196     Factor= 0.2000
 Density functional                   -12.54787796     B88=-14.86920693 DIRAC=-13.40801413 LYP= -0.59567670 VWN3= -1.51005110
 Virial quotient                       -1.00665975
 !RKS STATE 1.1 Dipole moment          -0.60747450    -0.00000000     0.25956648
 Dipole moment /Debye                  -1.54394505    -0.00000000     0.65970896

 Orbital energies:

         1.1          2.1          3.1          4.1          5.1          6.1          7.1          8.1          9.1         10.1
    -19.129159   -10.226910    -1.011598    -0.668089    -0.500124    -0.434645    -0.419774    -0.322247    -0.260898     0.041551

        11.1
      0.090739

 HOMO      9.1    -0.260898 =      -7.0994eV
 LUMO     10.1     0.041551 =       1.1307eV
 LUMO-HOMO         0.302449 =       8.2301eV


 **********************************************************************************************************************************
 DATASETS  * FILE   NREC   LENGTH (MB)   RECORD NAMES
              1      20       19.42       500      610      700      900      950      970     1000      129      960     1100   
                                          VAR    BASINP    GEOM    SYMINP    ZMAT    AOBASIS   BASIS     P2S    ABASIS      S 
                                         1400     1410     1200     1210     1080     1600     1650     1700     1800     2100   
                                           T        V       H0       H01     AOSYM     SMH    MOLCAS    OPER     GRID      RKS  

              2       7        0.54       700     1000      520     1800     2100     5300     5500   
                                         GEOM     BASIS   MCVARS    GRID      RKS     HESS     HINFO   

 PROGRAMS   *        TOTAL       RKS       RKS       INT
 CPU TIMES  *         5.63      0.43      0.29      0.27
 REAL TIME  *         7.16 SEC
 DISK USED  *       175.25 MB      
 SF USED    *         0.01 MB      
 GA USED    *         0.74 MB       (max)       0.74 MB       (current)
 **********************************************************************************************************************************
1PROGRAM * ALASKA (Gradient of the energy)     Author: R. Lindh

 Orbitals from record         2100.1

 Number of closed-shell orbitals:  9 (  9 )
 Number of occupied orbitals:      9 (  9 )

 Number of electrons= 18     Singlet     Space symmetry=1      Wavefunction type: CLOSED          

 Gradient contributions of integration grid neglected (GRIDGRAD=0).

 DFT GRADIENT, EXFAC=     0.200

 RKS GRADIENT FOR STATE 1.1

 Atom          dE/dx               dE/dy               dE/dz

   1        -0.029575880         0.000000000        -0.005778521
   2         0.025246370         0.000000000         0.028543368
   3         0.008907298         0.000000000        -0.010331231
   4        -0.004331925         0.000000000        -0.008448194
   5        -0.000118344         0.005422920        -0.001998882
   6        -0.000118344        -0.005422920        -0.001998882

 Nuclear force contribution to virial =         0.014902289
 Starting task   2.  CPU=     3.06 sec, Elapsed=     3.11 sec
 Incrementing variable R2               by  0.005292 ANG   to    1.403292 ANG


 Recomputing integrals since geometry changed

1PROGRAM * SEWARD (Integral evaluation for generally contracted gaussian basis sets)     Author: Roland Lindh, 1990

 Geometry written to block  1 of record 700

 Orientation using atomic masses  
 Molecule type: Asymmetric top
 Rotational constants:      25.2710103     24.3511948    122.1750047 GHz  (calculated with average atomic masses)

 Point group  C1  



 ATOMIC COORDINATES

 NR  ATOM    CHARGE       X              Y              Z

   1  H       1.00   -1.637336267    0.000000000   -1.907321003
   2  O       8.00    0.132649946    0.000000000   -1.289821901
   3  C       6.00   -0.016879726    0.000000000    1.357796085
   4  H       1.00   -2.034719844    0.000000000    1.923751944
   5  H       1.00    0.883800165    1.730540856    2.138682034
   6  H       1.00    0.883800165   -1.730540856    2.138682034

 Bond lengths in Bohr (Angstrom)

 1-2  1.874608316  2-3  2.651837122  3-4  2.095706272  3-5  2.101375451  3-6  2.101375451
     ( 0.992000000)     ( 1.403291772)     ( 1.109000000)     ( 1.112000000)     ( 1.112000000)

 Bond angles

  1-2-3  106.00000000   2-3-4  108.90000000   2-3-5  110.29461205   2-3-6  110.29461205

  4-3-5  108.20000000   4-3-6  108.20000000   5-3-6  110.87900723

 NUCLEAR CHARGE:                   18
 NUMBER OF PRIMITIVE AOS:          82
 NUMBER OF SYMMETRY AOS:           80
 NUMBER OF CONTRACTIONS:           48   (  48A   )
 NUMBER OF CORE ORBITALS:           2   (   2A   )
 NUMBER OF VALENCE ORBITALS:       12   (  12A   )


 NUCLEAR REPULSION ENERGY   40.27153754


 Eigenvalues of metric

         1 0.962E-02 0.177E-01 0.365E-01 0.398E-01 0.411E-01 0.484E-01 0.518E-01 0.568E-01


 Contracted 2-electron integrals neglected if value below      1.0D-14
 AO integral compression algorithm  1   Integral accuracy      1.0D-14

     6.291 MB (compressed) written to integral file ( 92.4%)

     Node minimum: 0.786 MB, node maximum: 1.049 MB


 NUMBER OF SORTED TWO-ELECTRON INTEGRALS:      99372.     BUFFER LENGTH:  32768
 NUMBER OF SEGMENTS:   1  SEGMENT LENGTH:      99372      RECORD LENGTH: 524288

 Memory used in sort:       0.66 MW

 SORT1 READ      839336. AND WROTE       80967. INTEGRALS IN      1 RECORDS. CPU TIME:     0.02 SEC, REAL TIME:     0.02 SEC
 SORT2 READ      555544. AND WROTE      692076. INTEGRALS IN     21 RECORDS. CPU TIME:     0.01 SEC, REAL TIME:     0.01 SEC

 Node minimum:       98364.  Node maximum:       99372. integrals

 OPERATOR DM      FOR CENTER  0  COORDINATES:    0.000000    0.000000    0.000000
 Density functional group B3LYP3=B88+DIRAC+LYP+VWN3
 Functional: B88(Automatically generated (new) B88)                            Gradient terms: 1
 Functional: DIRAC(Automatically generated (new) DIRAC)                        Gradient terms: 0
 Functional: LYP(Automatically generated (new) LYP)                            Gradient terms: 1
 Functional: VWN3(Automatically generated (new) VWN3)                          Gradient terms: 0
 Use grid at  1800.2
 

 Exact exchange will be calculated, factor:  0.2000

 Functional: B88                       Factor:  0.7200
 Functional: DIRAC                     Factor:  0.0800
 Functional: LYP                       Factor:  0.8100
 Functional: VWN3                      Factor:  0.1900
 
 Computed new grid on record 1800.1 in CPU time    0.0
   42186 words reserved for DFT integration

 PROGRAM * RKS-SCF (Restricted closed shell Kohn-Sham)     Authors: W. Meyer, H.-J. Werner, P.J. Knowles, 1993

 NUMBER OF ELECTRONS:       9+    9-    SPACE SYMMETRY=1    SPIN SYMMETRY: Singlet 
 CONVERGENCE THRESHOLDS:    1.00E-10 (Density)    1.00E-10 (Energy)
 MAX. NUMBER OF ITERATIONS:      300
 INTERPOLATION TYPE:            DIIS
 INTERPOLATION STEPS:              2 (START)      1 (STEP)
 LEVEL SHIFTS:                  0.00 (CLOSED)  0.00 (OPEN) 

 Number of closed-shell orbitals:    9 (   9 )


 Use fine grid record 1800.2 for energy threshold  1.0D-06
 Molecular orbitals read from record     2100.2  Type=RKS/CANONICAL (state 1.1)

 Molecular orbital dump at record        2100.1

 ITERATION    DDIFF          GRAD             ENERGY        2-EL.EN.            DIPOLE MOMENTS         DIIS   ORB.
    1      0.000D+00      0.000D+00      -115.71865356    187.163954   -0.60573   -0.00000    0.26400    0    start
    2      0.000D+00      0.145D-03      -115.71866403    187.146273   -0.60507   -0.00000    0.26786    1    diag
    3      0.395D-03      0.376D-04      -115.71866411    187.169791   -0.60616   -0.00000    0.26798    2    diag
    4      0.991D-04      0.343D-04      -115.71866445    187.156302   -0.60540   -0.00000    0.26737    3    diag
    5      0.516D-04      0.586D-05      -115.71866446    187.157539   -0.60550   -0.00000    0.26758    4    diag
    6      0.809D-05      0.208D-05      -115.71866446    187.157737   -0.60550   -0.00000    0.26757    5    diag
    7      0.352D-05      0.301D-06      -115.71866446    187.157725   -0.60550   -0.00000    0.26757    6    diag
    8      0.453D-06      0.171D-07      -115.71866446    187.157724   -0.60550   -0.00000    0.26757    7    orth
    9      0.302D-07      0.404D-08      -115.71866446    187.157723   -0.60550   -0.00000    0.26757    8    diag
   10      0.596D-08      0.299D-09      -115.71866446    187.157723   -0.60550   -0.00000    0.26757    9    diag
   11      0.649D-09      0.858D-10      -115.71866446    187.157723   -0.60550   -0.00000    0.26757    9    diag
   12      0.153D-09      0.921D-11      -115.71866446    187.157723   -0.60550   -0.00000    0.26757    9    diag
   13      0.124D-10      0.144D-11      -115.71866446    187.157723   -0.60550   -0.00000    0.26757    0    orth

 Final occupancy:   9

 !RKS STATE 1.1 Energy               -115.718664458262
 Nuclear energy                        40.27153754
 One-electron energy                 -237.02148921
 Two-electron energy                   93.57886175
 SCF exchange energy                  -14.82826439     Factor= 0.2000
 Density functional                   -12.54757453     B88=-14.86893743 DIRAC=-13.40750935 LYP= -0.59559770 VWN3= -1.51002472
 Virial quotient                       -1.00668863
 !RKS STATE 1.1 Dipole moment          -0.60549887    -0.00000000     0.26756911
 Dipole moment /Debye                  -1.53892381    -0.00000000     0.68004830

 Orbital energies:

         1.1          2.1          3.1          4.1          5.1          6.1          7.1          8.1          9.1         10.1
    -19.128765   -10.227332    -1.010671    -0.668840    -0.499590    -0.434146    -0.419342    -0.322784    -0.261231     0.042719

        11.1
      0.090752

 HOMO      9.1    -0.261231 =      -7.1084eV
 LUMO     10.1     0.042719 =       1.1624eV
 LUMO-HOMO         0.303950 =       8.2709eV


 **********************************************************************************************************************************
 DATASETS  * FILE   NREC   LENGTH (MB)   RECORD NAMES
              1      20       19.42       500      610      700      900      950      970     1000      129      960     1100   
                                          VAR    BASINP    GEOM    SYMINP    ZMAT    AOBASIS   BASIS     P2S    ABASIS      S 
                                         1400     1410     1200     1210     1080     1600     1650     1700     1800     2100   
                                           T        V       H0       H01     AOSYM     SMH    MOLCAS    OPER     GRID      RKS  

              2       7        0.54       700     1000      520     1800     2100     5300     5500   
                                         GEOM     BASIS   MCVARS    GRID      RKS     HESS     HINFO   

 PROGRAMS   *        TOTAL       RKS       RKS       INT
 CPU TIMES  *         8.65      0.44      0.29      0.27
 REAL TIME  *        10.24 SEC
 DISK USED  *       175.25 MB      
 SF USED    *         0.01 MB      
 GA USED    *         0.74 MB       (max)       0.74 MB       (current)
 **********************************************************************************************************************************
1PROGRAM * ALASKA (Gradient of the energy)     Author: R. Lindh

 Orbitals from record         2100.1

 Number of closed-shell orbitals:  9 (  9 )
 Number of occupied orbitals:      9 (  9 )

 Number of electrons= 18     Singlet     Space symmetry=1      Wavefunction type: CLOSED          

 Gradient contributions of integration grid neglected (GRIDGRAD=0).

 DFT GRADIENT, EXFAC=     0.200

 RKS GRADIENT FOR STATE 1.1

 Atom          dE/dx               dE/dy               dE/dz

   1        -0.025408413         0.000000000        -0.004602330
   2         0.021217892         0.000000000         0.023203595
   3         0.008698233         0.000000000        -0.007242643
   4        -0.004324062         0.000000000        -0.008050594
   5        -0.000087281         0.005496507        -0.001660547
   6        -0.000087281        -0.005496507        -0.001660547

 Nuclear force contribution to virial =         0.018363155
 Starting task   3.  CPU=     6.14 sec, Elapsed=     6.19 sec
 Incrementing variable A1               by  1.000000 DEG   to  107.000000 DEG


 Recomputing integrals since geometry changed

1PROGRAM * SEWARD (Integral evaluation for generally contracted gaussian basis sets)     Author: Roland Lindh, 1990

 Geometry written to block  1 of record 700

 Orientation using atomic masses  
 Molecule type: Asymmetric top
 Rotational constants:      25.3885328     24.4725439    122.4810949 GHz  (calculated with average atomic masses)

 Point group  C1  



 ATOMIC COORDINATES

 NR  ATOM    CHARGE       X              Y              Z

   1  H       1.00   -1.625299681    0.000000000   -1.933811734
   2  O       8.00    0.133102184    0.000000000   -1.284058535
   3  C       6.00   -0.018049694    0.000000000    1.353450989
   4  H       1.00   -2.036358196    0.000000000    1.917734223
   5  H       1.00    0.881982672    1.730540856    2.135083173
   6  H       1.00    0.881982672   -1.730540856    2.135083173

 Bond lengths in Bohr (Angstrom)

 1-2  1.874608316  2-3  2.641837122  3-4  2.095706272  3-5  2.101375451  3-6  2.101375451
     ( 0.992000000)     ( 1.398000000)     ( 1.109000000)     ( 1.112000000)     ( 1.112000000)

 Bond angles

  1-2-3  107.00000000   2-3-4  108.90000000   2-3-5  110.29461205   2-3-6  110.29461205

  4-3-5  108.20000000   4-3-6  108.20000000   5-3-6  110.87900723

 NUCLEAR CHARGE:                   18
 NUMBER OF PRIMITIVE AOS:          82
 NUMBER OF SYMMETRY AOS:           80
 NUMBER OF CONTRACTIONS:           48   (  48A   )
 NUMBER OF CORE ORBITALS:           2   (   2A   )
 NUMBER OF VALENCE ORBITALS:       12   (  12A   )


 NUCLEAR REPULSION ENERGY   40.34502041


 Eigenvalues of metric

         1 0.960E-02 0.177E-01 0.363E-01 0.398E-01 0.409E-01 0.483E-01 0.517E-01 0.569E-01


 Contracted 2-electron integrals neglected if value below      1.0D-14
 AO integral compression algorithm  1   Integral accuracy      1.0D-14

     5.767 MB (compressed) written to integral file (100.0%)

     Node minimum: 0.786 MB, node maximum: 1.049 MB


 NUMBER OF SORTED TWO-ELECTRON INTEGRALS:      99372.     BUFFER LENGTH:  32768
 NUMBER OF SEGMENTS:   1  SEGMENT LENGTH:      99372      RECORD LENGTH: 524288

 Memory used in sort:       0.66 MW

 SORT1 READ      839336. AND WROTE       80967. INTEGRALS IN      1 RECORDS. CPU TIME:     0.02 SEC, REAL TIME:     0.02 SEC
 SORT2 READ      555544. AND WROTE      692076. INTEGRALS IN     21 RECORDS. CPU TIME:     0.00 SEC, REAL TIME:     0.01 SEC

 Node minimum:       98364.  Node maximum:       99372. integrals

 OPERATOR DM      FOR CENTER  0  COORDINATES:    0.000000    0.000000    0.000000
 Density functional group B3LYP3=B88+DIRAC+LYP+VWN3
 Functional: B88(Automatically generated (new) B88)                            Gradient terms: 1
 Functional: DIRAC(Automatically generated (new) DIRAC)                        Gradient terms: 0
 Functional: LYP(Automatically generated (new) LYP)                            Gradient terms: 1
 Functional: VWN3(Automatically generated (new) VWN3)                          Gradient terms: 0
 Use grid at  1800.2
 

 Exact exchange will be calculated, factor:  0.2000

 Functional: B88                       Factor:  0.7200
 Functional: DIRAC                     Factor:  0.0800
 Functional: LYP                       Factor:  0.8100
 Functional: VWN3                      Factor:  0.1900
 
 Computed new grid on record 1800.1 in CPU time    0.0
   42186 words reserved for DFT integration

 PROGRAM * RKS-SCF (Restricted closed shell Kohn-Sham)     Authors: W. Meyer, H.-J. Werner, P.J. Knowles, 1993

 NUMBER OF ELECTRONS:       9+    9-    SPACE SYMMETRY=1    SPIN SYMMETRY: Singlet 
 CONVERGENCE THRESHOLDS:    1.00E-10 (Density)    1.00E-10 (Energy)
 MAX. NUMBER OF ITERATIONS:      300
 INTERPOLATION TYPE:            DIIS
 INTERPOLATION STEPS:              2 (START)      1 (STEP)
 LEVEL SHIFTS:                  0.00 (CLOSED)  0.00 (OPEN) 

 Number of closed-shell orbitals:    9 (   9 )


 Use fine grid record 1800.2 for energy threshold  1.0D-06
 Molecular orbitals read from record     2100.2  Type=RKS/CANONICAL (state 1.1)

 Molecular orbital dump at record        2100.1

 ITERATION    DDIFF          GRAD             ENERGY        2-EL.EN.            DIPOLE MOMENTS         DIIS   ORB.
    1      0.000D+00      0.000D+00      -115.71853417    187.298171   -0.60333   -0.00000    0.25422    0    start
    2      0.000D+00      0.273D-03      -115.71856877    187.310472   -0.60589    0.00000    0.25149    1    diag
    3      0.716D-03      0.363D-04      -115.71856892    187.293063   -0.60455   -0.00000    0.25182    2    diag
    4      0.803D-04      0.313D-04      -115.71856918    187.305779   -0.60538   -0.00000    0.25222    3    diag
    5      0.498D-04      0.763D-05      -115.71856920    187.303356   -0.60528   -0.00000    0.25197    4    diag
    6      0.105D-04      0.197D-05      -115.71856920    187.303299   -0.60528   -0.00000    0.25200    5    diag
    7      0.328D-05      0.549D-06      -115.71856920    187.303374   -0.60527   -0.00000    0.25200    6    diag
    8      0.890D-06      0.301D-07      -115.71856920    187.303371   -0.60528   -0.00000    0.25201    7    orth
    9      0.496D-07      0.850D-08      -115.71856920    187.303371   -0.60527   -0.00000    0.25201    8    diag
   10      0.121D-07      0.724D-09      -115.71856920    187.303371   -0.60528   -0.00000    0.25201    9    diag
   11      0.141D-08      0.107D-09      -115.71856920    187.303371   -0.60528   -0.00000    0.25201    9    diag
   12      0.205D-09      0.103D-10      -115.71856920    187.303371   -0.60528   -0.00000    0.25201    9    diag
   13      0.214D-10      0.173D-11      -115.71856920    187.303371   -0.60528   -0.00000    0.25201    0    orth

 Final occupancy:   9

 !RKS STATE 1.1 Energy               -115.718569196827
 Nuclear energy                        40.34502041
 One-electron energy                 -237.16580140
 Two-electron energy                   93.65168531
 SCF exchange energy                  -14.83092650     Factor= 0.2000
 Density functional                   -12.54947352     B88=-14.87112368 DIRAC=-13.40987653 LYP= -0.59573321 VWN3= -1.51016024
 Virial quotient                       -1.00662248
 !RKS STATE 1.1 Dipole moment          -0.60527503    -0.00000000     0.25200533
 Dipole moment /Debye                  -1.53835492    -0.00000000     0.64049170

 Orbital energies:

         1.1          2.1          3.1          4.1          5.1          6.1          7.1          8.1          9.1         10.1
    -19.128323   -10.226989    -1.011690    -0.668978    -0.500539    -0.434508    -0.420212    -0.321200    -0.260852     0.042892

        11.1
      0.090695

 HOMO      9.1    -0.260852 =      -7.0982eV
 LUMO     10.1     0.042892 =       1.1672eV
 LUMO-HOMO         0.303745 =       8.2653eV


 **********************************************************************************************************************************
 DATASETS  * FILE   NREC   LENGTH (MB)   RECORD NAMES
              1      20       19.42       500      610      700      900      950      970     1000      129      960     1100   
                                          VAR    BASINP    GEOM    SYMINP    ZMAT    AOBASIS   BASIS     P2S    ABASIS      S 
                                         1400     1410     1200     1210     1080     1600     1650     1700     1800     2100   
                                           T        V       H0       H01     AOSYM     SMH    MOLCAS    OPER     GRID      RKS  

              2       7        0.54       700     1000      520     1800     2100     5300     5500   
                                         GEOM     BASIS   MCVARS    GRID      RKS     HESS     HINFO   

 PROGRAMS   *        TOTAL       RKS       RKS       INT
 CPU TIMES  *        11.69      0.45      0.29      0.27
 REAL TIME  *        13.33 SEC
 DISK USED  *       175.25 MB      
 SF USED    *         0.01 MB      
 GA USED    *         0.74 MB       (max)       0.74 MB       (current)
 **********************************************************************************************************************************
1PROGRAM * ALASKA (Gradient of the energy)     Author: R. Lindh

 Orbitals from record         2100.1

 Number of closed-shell orbitals:  9 (  9 )
 Number of occupied orbitals:      9 (  9 )

 Number of electrons= 18     Singlet     Space symmetry=1      Wavefunction type: CLOSED          

 Gradient contributions of integration grid neglected (GRIDGRAD=0).

 DFT GRADIENT, EXFAC=     0.200

 RKS GRADIENT FOR STATE 1.1

 Atom          dE/dx               dE/dy               dE/dz

   1        -0.025034143         0.000000000        -0.006528119
   2         0.019471859         0.000000000         0.027993495
   3         0.010027621         0.000000000        -0.009326076
   4        -0.004238851         0.000000000        -0.008417610
   5        -0.000108282         0.005429352        -0.001866478
   6        -0.000108282        -0.005429352        -0.001866478

 Nuclear force contribution to virial =         0.010274548
 Starting task   4.  CPU=     9.22 sec, Elapsed=     9.28 sec
 Incrementing variable R3               by  0.005292 ANG   to    1.114292 ANG


 Recomputing integrals since geometry changed

1PROGRAM * SEWARD (Integral evaluation for generally contracted gaussian basis sets)     Author: Roland Lindh, 1990

 Geometry written to block  1 of record 700

 Orientation using atomic masses  
 Molecule type: Asymmetric top
 Rotational constants:      25.4273910     24.4833898    121.8528993 GHz  (calculated with average atomic masses)

 Point group  C1  



 ATOMIC COORDINATES

 NR  ATOM    CHARGE       X              Y              Z

   1  H       1.00   -1.637528109    0.000000000   -1.902523159
   2  O       8.00    0.132532784    0.000000000   -1.285238158
   3  C       6.00   -0.016113967    0.000000000    1.352413738
   4  H       1.00   -2.043513735    0.000000000    1.921315384
   5  H       1.00    0.884660372    1.730540856    2.133190735
   6  H       1.00    0.884660372   -1.730540856    2.133190735

 Bond lengths in Bohr (Angstrom)

 1-2  1.874608316  2-3  2.641837122  3-4  2.105706272  3-5  2.101375451  3-6  2.101375451
     ( 0.992000000)     ( 1.398000000)     ( 1.114291772)     ( 1.112000000)     ( 1.112000000)

 Bond angles

  1-2-3  106.00000000   2-3-4  108.90000000   2-3-5  110.29461205   2-3-6  110.29461205

  4-3-5  108.20000000   4-3-6  108.20000000   5-3-6  110.87900723

 NUCLEAR CHARGE:                   18
 NUMBER OF PRIMITIVE AOS:          82
 NUMBER OF SYMMETRY AOS:           80
 NUMBER OF CONTRACTIONS:           48   (  48A   )
 NUMBER OF CORE ORBITALS:           2   (   2A   )
 NUMBER OF VALENCE ORBITALS:       12   (  12A   )


 NUCLEAR REPULSION ENERGY   40.33956516


 Eigenvalues of metric

         1 0.961E-02 0.177E-01 0.367E-01 0.398E-01 0.412E-01 0.483E-01 0.522E-01 0.569E-01


 Contracted 2-electron integrals neglected if value below      1.0D-14
 AO integral compression algorithm  1   Integral accuracy      1.0D-14

     6.029 MB (compressed) written to integral file ( 96.4%)

     Node minimum: 0.786 MB, node maximum: 1.049 MB


 NUMBER OF SORTED TWO-ELECTRON INTEGRALS:      99372.     BUFFER LENGTH:  32768
 NUMBER OF SEGMENTS:   1  SEGMENT LENGTH:      99372      RECORD LENGTH: 524288

 Memory used in sort:       0.66 MW

 SORT1 READ      839336. AND WROTE       80967. INTEGRALS IN      1 RECORDS. CPU TIME:     0.02 SEC, REAL TIME:     0.02 SEC
 SORT2 READ      555544. AND WROTE      692076. INTEGRALS IN     21 RECORDS. CPU TIME:     0.01 SEC, REAL TIME:     0.01 SEC

 Node minimum:       98364.  Node maximum:       99372. integrals

 OPERATOR DM      FOR CENTER  0  COORDINATES:    0.000000    0.000000    0.000000
 Density functional group B3LYP3=B88+DIRAC+LYP+VWN3
 Functional: B88(Automatically generated (new) B88)                            Gradient terms: 1
 Functional: DIRAC(Automatically generated (new) DIRAC)                        Gradient terms: 0
 Functional: LYP(Automatically generated (new) LYP)                            Gradient terms: 1
 Functional: VWN3(Automatically generated (new) VWN3)                          Gradient terms: 0
 Use grid at  1800.2
 

 Exact exchange will be calculated, factor:  0.2000

 Functional: B88                       Factor:  0.7200
 Functional: DIRAC                     Factor:  0.0800
 Functional: LYP                       Factor:  0.8100
 Functional: VWN3                      Factor:  0.1900
 
 Computed new grid on record 1800.1 in CPU time    0.0
   42186 words reserved for DFT integration

 PROGRAM * RKS-SCF (Restricted closed shell Kohn-Sham)     Authors: W. Meyer, H.-J. Werner, P.J. Knowles, 1993

 NUMBER OF ELECTRONS:       9+    9-    SPACE SYMMETRY=1    SPIN SYMMETRY: Singlet 
 CONVERGENCE THRESHOLDS:    1.00E-10 (Density)    1.00E-10 (Energy)
 MAX. NUMBER OF ITERATIONS:      300
 INTERPOLATION TYPE:            DIIS
 INTERPOLATION STEPS:              2 (START)      1 (STEP)
 LEVEL SHIFTS:                  0.00 (CLOSED)  0.00 (OPEN) 

 Number of closed-shell orbitals:    9 (   9 )


 Use fine grid record 1800.2 for energy threshold  1.0D-06
 Molecular orbitals read from record     2100.2  Type=RKS/CANONICAL (state 1.1)

 Molecular orbital dump at record        2100.1

 ITERATION    DDIFF          GRAD             ENERGY        2-EL.EN.            DIPOLE MOMENTS         DIIS   ORB.
    1      0.000D+00      0.000D+00      -115.71841763    187.288466   -0.60558   -0.00000    0.25998    0    start
    2      0.000D+00      0.841D-04      -115.71842126    187.278505   -0.60468   -0.00000    0.25979    1    diag
    3      0.373D-03      0.295D-04      -115.71842139    187.284448   -0.60375   -0.00000    0.25916    2    diag
    4      0.810D-04      0.245D-04      -115.71842157    187.283392   -0.60391   -0.00000    0.25950    3    diag
    5      0.380D-04      0.419D-05      -115.71842157    187.281951   -0.60394   -0.00000    0.25940    4    diag
    6      0.701D-05      0.164D-05      -115.71842158    187.282603   -0.60398   -0.00000    0.25943    5    diag
    7      0.256D-05      0.279D-06      -115.71842158    187.282526   -0.60397   -0.00000    0.25943    6    diag
    8      0.405D-06      0.278D-07      -115.71842158    187.282525   -0.60397   -0.00000    0.25943    7    orth
    9      0.423D-07      0.247D-08      -115.71842158    187.282526   -0.60397   -0.00000    0.25943    8    diag
   10      0.592D-08      0.280D-09      -115.71842158    187.282526   -0.60397   -0.00000    0.25943    9    diag
   11      0.560D-09      0.343D-10      -115.71842158    187.282526   -0.60397   -0.00000    0.25943    9    diag
   12      0.703D-10      0.727D-11      -115.71842158    187.282526   -0.60397   -0.00000    0.25943    0    orth

 Final occupancy:   9

 !RKS STATE 1.1 Energy               -115.718421575746
 Nuclear energy                        40.33956516
 One-electron energy                 -237.15102226
 Two-electron energy                   93.64126285
 SCF exchange energy                  -14.82915246     Factor= 0.2000
 Density functional                   -12.54822732     B88=-14.86963249 DIRAC=-13.40846133 LYP= -0.59568260 VWN3= -1.51006377
 Virial quotient                       -1.00665119
 !RKS STATE 1.1 Dipole moment          -0.60396719    -0.00000000     0.25943019
 Dipole moment /Debye                  -1.53503093    -0.00000000     0.65936257

 Orbital energies:

         1.1          2.1          3.1          4.1          5.1          6.1          7.1          8.1          9.1         10.1
    -19.128880   -10.227516    -1.012559    -0.668202    -0.500324    -0.434792    -0.419854    -0.322245    -0.261145     0.042242

        11.1
      0.090946

 HOMO      9.1    -0.261145 =      -7.1061eV
 LUMO     10.1     0.042242 =       1.1495eV
 LUMO-HOMO         0.303388 =       8.2556eV


 **********************************************************************************************************************************
 DATASETS  * FILE   NREC   LENGTH (MB)   RECORD NAMES
              1      20       19.42       500      610      700      900      950      970     1000      129      960     1100   
                                          VAR    BASINP    GEOM    SYMINP    ZMAT    AOBASIS   BASIS     P2S    ABASIS      S 
                                         1400     1410     1200     1210     1080     1600     1650     1700     1800     2100   
                                           T        V       H0       H01     AOSYM     SMH    MOLCAS    OPER     GRID      RKS  

              2       7        0.54       700     1000      520     1800     2100     5300     5500   
                                         GEOM     BASIS   MCVARS    GRID      RKS     HESS     HINFO   

 PROGRAMS   *        TOTAL       RKS       RKS       INT
 CPU TIMES  *        14.70      0.43      0.29      0.27
 REAL TIME  *        16.39 SEC
 DISK USED  *       175.25 MB      
 SF USED    *         0.01 MB      
 GA USED    *         0.74 MB       (max)       0.74 MB       (current)
 **********************************************************************************************************************************
1PROGRAM * ALASKA (Gradient of the energy)     Author: R. Lindh

 Orbitals from record         2100.1

 Number of closed-shell orbitals:  9 (  9 )
 Number of occupied orbitals:      9 (  9 )

 Number of electrons= 18     Singlet     Space symmetry=1      Wavefunction type: CLOSED          

 Gradient contributions of integration grid neglected (GRIDGRAD=0).

 DFT GRADIENT, EXFAC=     0.200

 RKS GRADIENT FOR STATE 1.1

 Atom          dE/dx               dE/dy               dE/dz

   1        -0.025647484         0.000000000        -0.004297254
   2         0.021474368         0.000000000         0.026852494
   3         0.011522179         0.000000000        -0.010980088
   4        -0.007298629         0.000000000        -0.007551357
   5        -0.000020532         0.005435118        -0.002017943
   6        -0.000020532        -0.005435118        -0.002017943

 Nuclear force contribution to virial =         0.014045075
 Starting task   5.  CPU=    12.42 sec, Elapsed=    12.47 sec
 Incrementing variable A2               by  1.000000 DEG   to  109.900000 DEG


 Recomputing integrals since geometry changed

1PROGRAM * SEWARD (Integral evaluation for generally contracted gaussian basis sets)     Author: Roland Lindh, 1990

 Geometry written to block  1 of record 700

 Orientation using atomic masses  
 Molecule type: Asymmetric top
 Rotational constants:      25.4306403     24.4973141    122.1236004 GHz  (calculated with average atomic masses)

 Point group  C1  



 ATOMIC COORDINATES

 NR  ATOM    CHARGE       X              Y              Z

   1  H       1.00   -1.638947283    0.000000000   -1.902592217
   2  O       8.00    0.131096460    0.000000000   -1.285258040
   3  C       6.00   -0.017623569    0.000000000    1.352389725
   4  H       1.00   -2.025223053    0.000000000    1.953662618
   5  H       1.00    0.896618763    1.730540856    2.117352526
   6  H       1.00    0.896618763   -1.730540856    2.117352526

 Bond lengths in Bohr (Angstrom)

 1-2  1.874608316  2-3  2.641837122  3-4  2.095706272  3-5  2.101375451  3-6  2.101375451
     ( 0.992000000)     ( 1.398000000)     ( 1.109000000)     ( 1.112000000)     ( 1.112000000)

 Bond angles

  1-2-3  106.00000000   2-3-4  109.90000000   2-3-5  109.81355348   2-3-6  109.81355348

  4-3-5  108.20000000   4-3-6  108.20000000   5-3-6  110.87900723

 NUCLEAR CHARGE:                   18
 NUMBER OF PRIMITIVE AOS:          82
 NUMBER OF SYMMETRY AOS:           80
 NUMBER OF CONTRACTIONS:           48   (  48A   )
 NUMBER OF CORE ORBITALS:           2   (   2A   )
 NUMBER OF VALENCE ORBITALS:       12   (  12A   )


 NUCLEAR REPULSION ENERGY   40.35639513


 Eigenvalues of metric

         1 0.960E-02 0.177E-01 0.362E-01 0.398E-01 0.410E-01 0.485E-01 0.517E-01 0.569E-01


 Contracted 2-electron integrals neglected if value below      1.0D-14
 AO integral compression algorithm  1   Integral accuracy      1.0D-14

     6.291 MB (compressed) written to integral file ( 92.6%)

     Node minimum: 0.786 MB, node maximum: 1.049 MB


 NUMBER OF SORTED TWO-ELECTRON INTEGRALS:      99372.     BUFFER LENGTH:  32768
 NUMBER OF SEGMENTS:   1  SEGMENT LENGTH:      99372      RECORD LENGTH: 524288

 Memory used in sort:       0.66 MW

 SORT1 READ      839336. AND WROTE       80967. INTEGRALS IN      1 RECORDS. CPU TIME:     0.02 SEC, REAL TIME:     0.03 SEC
 SORT2 READ      555544. AND WROTE      692076. INTEGRALS IN     21 RECORDS. CPU TIME:     0.01 SEC, REAL TIME:     0.01 SEC

 Node minimum:       98364.  Node maximum:       99372. integrals

 OPERATOR DM      FOR CENTER  0  COORDINATES:    0.000000    0.000000    0.000000
 Density functional group B3LYP3=B88+DIRAC+LYP+VWN3
 Functional: B88(Automatically generated (new) B88)                            Gradient terms: 1
 Functional: DIRAC(Automatically generated (new) DIRAC)                        Gradient terms: 0
 Functional: LYP(Automatically generated (new) LYP)                            Gradient terms: 1
 Functional: VWN3(Automatically generated (new) VWN3)                          Gradient terms: 0
 Use grid at  1800.2
 

 Exact exchange will be calculated, factor:  0.2000

 Functional: B88                       Factor:  0.7200
 Functional: DIRAC                     Factor:  0.0800
 Functional: LYP                       Factor:  0.8100
 Functional: VWN3                      Factor:  0.1900
 
 Computed new grid on record 1800.1 in CPU time    0.0
   42186 words reserved for DFT integration

 PROGRAM * RKS-SCF (Restricted closed shell Kohn-Sham)     Authors: W. Meyer, H.-J. Werner, P.J. Knowles, 1993

 NUMBER OF ELECTRONS:       9+    9-    SPACE SYMMETRY=1    SPIN SYMMETRY: Singlet 
 CONVERGENCE THRESHOLDS:    1.00E-10 (Density)    1.00E-10 (Energy)
 MAX. NUMBER OF ITERATIONS:      300
 INTERPOLATION TYPE:            DIIS
 INTERPOLATION STEPS:              2 (START)      1 (STEP)
 LEVEL SHIFTS:                  0.00 (CLOSED)  0.00 (OPEN) 

 Number of closed-shell orbitals:    9 (   9 )


 Use fine grid record 1800.2 for energy threshold  1.0D-06
 Molecular orbitals read from record     2100.2  Type=RKS/CANONICAL (state 1.1)

 Molecular orbital dump at record        2100.1

 ITERATION    DDIFF          GRAD             ENERGY        2-EL.EN.            DIPOLE MOMENTS         DIIS   ORB.
    1      0.000D+00      0.000D+00      -115.71865810    187.316278   -0.60463   -0.00000    0.26002    0    start
    2      0.000D+00      0.214D-03      -115.71868602    187.320548   -0.60607   -0.00000    0.26049    1    diag
    3      0.579D-03      0.194D-04      -115.71868628    187.314883   -0.60552   -0.00000    0.26016    2    diag
    4      0.570D-04      0.964D-05      -115.71868631    187.319638   -0.60590   -0.00000    0.26038    3    diag
    5      0.193D-04      0.411D-05      -115.71868631    187.318175   -0.60585   -0.00000    0.26031    4    diag
    6      0.591D-05      0.990D-06      -115.71868631    187.318215   -0.60584   -0.00000    0.26033    5    diag
    7      0.169D-05      0.333D-06      -115.71868631    187.318234   -0.60584   -0.00000    0.26032    6    diag
    8      0.506D-06      0.236D-07      -115.71868631    187.318233   -0.60584   -0.00000    0.26032    7    orth
    9      0.420D-07      0.482D-08      -115.71868631    187.318233   -0.60584   -0.00000    0.26032    8    diag
   10      0.626D-08      0.316D-09      -115.71868631    187.318233   -0.60584   -0.00000    0.26032    9    diag
   11      0.552D-09      0.495D-10      -115.71868631    187.318233   -0.60584   -0.00000    0.26032    9    diag
   12      0.824D-10      0.677D-11      -115.71868631    187.318233   -0.60584   -0.00000    0.26032    0    orth

 Final occupancy:   9

 !RKS STATE 1.1 Energy               -115.718686312465
 Nuclear energy                        40.35639513
 One-electron energy                 -237.18451197
 Two-electron energy                   93.65911668
 SCF exchange energy                  -14.83110983     Factor= 0.2000
 Density functional                   -12.54968616     B88=-14.87136236 DIRAC=-13.41013552 LYP= -0.59575414 VWN3= -1.51017665
 Virial quotient                       -1.00659123
 !RKS STATE 1.1 Dipole moment          -0.60583699    -0.00000000     0.26032248
 Dipole moment /Debye                  -1.53978319    -0.00000000     0.66163042

 Orbital energies:

         1.1          2.1          3.1          4.1          5.1          6.1          7.1          8.1          9.1         10.1
    -19.128845   -10.226815    -1.012449    -0.668616    -0.500786    -0.434757    -0.418832    -0.323534    -0.260725     0.043138

        11.1
      0.091282

 HOMO      9.1    -0.260725 =      -7.0947eV
 LUMO     10.1     0.043138 =       1.1738eV
 LUMO-HOMO         0.303863 =       8.2685eV


 **********************************************************************************************************************************
 DATASETS  * FILE   NREC   LENGTH (MB)   RECORD NAMES
              1      20       19.42       500      610      700      900      950      970     1000      129      960     1100   
                                          VAR    BASINP    GEOM    SYMINP    ZMAT    AOBASIS   BASIS     P2S    ABASIS      S 
                                         1400     1410     1200     1210     1080     1600     1650     1700     1800     2100   
                                           T        V       H0       H01     AOSYM     SMH    MOLCAS    OPER     GRID      RKS  

              2       7        0.54       700     1000      520     1800     2100     5300     5500   
                                         GEOM     BASIS   MCVARS    GRID      RKS     HESS     HINFO   

 PROGRAMS   *        TOTAL       RKS       RKS       INT
 CPU TIMES  *        18.02      0.60      0.29      0.27
 REAL TIME  *        19.76 SEC
 DISK USED  *       175.25 MB      
 SF USED    *         0.01 MB      
 GA USED    *         0.74 MB       (max)       0.74 MB       (current)
 **********************************************************************************************************************************
1PROGRAM * ALASKA (Gradient of the energy)     Author: R. Lindh

 Orbitals from record         2100.1

 Number of closed-shell orbitals:  9 (  9 )
 Number of occupied orbitals:      9 (  9 )

 Number of electrons= 18     Singlet     Space symmetry=1      Wavefunction type: CLOSED          

 Gradient contributions of integration grid neglected (GRIDGRAD=0).

 DFT GRADIENT, EXFAC=     0.200

 RKS GRADIENT FOR STATE 1.1

 Atom          dE/dx               dE/dy               dE/dz

   1        -0.025402007         0.000000000        -0.004074273
   2         0.023400428         0.000000000         0.026766332
   3         0.005782861         0.000000000        -0.010577538
   4        -0.004033014         0.000000000        -0.006575375
   5         0.000130313         0.005567507        -0.002774986
   6         0.000130313        -0.005567507        -0.002774986

 Nuclear force contribution to virial =         0.006717153
    5 tasks completed, CPU=15s Elapsed=15s
 Starting task   6.  CPU=    15.80 sec, Elapsed=    15.85 sec
 Incrementing variable D1               by  0.500000 DEG   to    0.500000 DEG


 Recomputing integrals since geometry changed

1PROGRAM * SEWARD (Integral evaluation for generally contracted gaussian basis sets)     Author: Roland Lindh, 1990

 Geometry written to block  1 of record 700

 Orientation using atomic masses  
 Molecule type: Asymmetric top
 Rotational constants:      25.4311424     24.5000101    122.1794316 GHz  (calculated with average atomic masses)

 Point group  C1  



 ATOMIC COORDINATES

 NR  ATOM    CHARGE       X              Y              Z

   1  H       1.00   -1.637011317   -0.001493003   -1.903143040
   2  O       8.00    0.132782950    0.000124525   -1.285096138
   3  C       6.00   -0.016999198    0.000034561    1.352491525
   4  H       1.00   -2.034922484   -0.019089847    1.917827397
   5  H       1.00    0.866746865    1.739557738    2.132767629
   6  H       1.00    0.900043616   -1.721363354    2.134540425

 Bond lengths in Bohr (Angstrom)

 1-2  1.874608316  2-3  2.641837122  3-4  2.095706272  3-5  2.101375451  3-6  2.101375451
     ( 0.992000000)     ( 1.398000000)     ( 1.109000000)     ( 1.112000000)     ( 1.112000000)

 Bond angles

  1-2-3  106.00000000   2-3-4  108.90000000   2-3-5  110.29461205   2-3-6  110.29461205

  4-3-5  108.20000000   4-3-6  108.20000000   5-3-6  110.87900723

 NUCLEAR CHARGE:                   18
 NUMBER OF PRIMITIVE AOS:          82
 NUMBER OF SYMMETRY AOS:           80
 NUMBER OF CONTRACTIONS:           48   (  48A   )
 NUMBER OF CORE ORBITALS:           2   (   2A   )
 NUMBER OF VALENCE ORBITALS:       12   (  12A   )


 NUCLEAR REPULSION ENERGY   40.35888514

 Eigenvalues of metric

         1 0.960E-02 0.177E-01 0.364E-01 0.398E-01 0.410E-01 0.484E-01 0.517E-01 0.567E-01


 Contracted 2-electron integrals neglected if value below      1.0D-14
 AO integral compression algorithm  1   Integral accuracy      1.0D-14

     7.078 MB (compressed) written to integral file (100.0%)

     Node minimum: 0.786 MB, node maximum: 1.049 MB


 NUMBER OF SORTED TWO-ELECTRON INTEGRALS:      99372.     BUFFER LENGTH:  32768
 NUMBER OF SEGMENTS:   1  SEGMENT LENGTH:      99372      RECORD LENGTH: 524288

 Memory used in sort:       0.66 MW

 SORT1 READ      839336. AND WROTE       97846. INTEGRALS IN      1 RECORDS. CPU TIME:     0.02 SEC, REAL TIME:     0.03 SEC
 SORT2 READ      682147. AND WROTE      692076. INTEGRALS IN     28 RECORDS. CPU TIME:     0.01 SEC, REAL TIME:     0.01 SEC

 Node minimum:       98364.  Node maximum:       99372. integrals

 OPERATOR DM      FOR CENTER  0  COORDINATES:    0.000000    0.000000    0.000000
 Density functional group B3LYP3=B88+DIRAC+LYP+VWN3
 Functional: B88(Automatically generated (new) B88)                            Gradient terms: 1
 Functional: DIRAC(Automatically generated (new) DIRAC)                        Gradient terms: 0
 Functional: LYP(Automatically generated (new) LYP)                            Gradient terms: 1
 Functional: VWN3(Automatically generated (new) VWN3)                          Gradient terms: 0
 Use grid at  1800.2
 

 Exact exchange will be calculated, factor:  0.2000

 Functional: B88                       Factor:  0.7200
 Functional: DIRAC                     Factor:  0.0800
 Functional: LYP                       Factor:  0.8100
 Functional: VWN3                      Factor:  0.1900
 
 Computed new grid on record 1800.1 in CPU time    0.0
   42186 words reserved for DFT integration

 PROGRAM * RKS-SCF (Restricted closed shell Kohn-Sham)     Authors: W. Meyer, H.-J. Werner, P.J. Knowles, 1993

 NUMBER OF ELECTRONS:       9+    9-    SPACE SYMMETRY=1    SPIN SYMMETRY: Singlet 
 CONVERGENCE THRESHOLDS:    1.00E-10 (Density)    1.00E-10 (Energy)
 MAX. NUMBER OF ITERATIONS:      300
 INTERPOLATION TYPE:            DIIS
 INTERPOLATION STEPS:              2 (START)      1 (STEP)
 LEVEL SHIFTS:                  0.00 (CLOSED)  0.00 (OPEN) 

 Number of closed-shell orbitals:    9 (   9 )


 Use fine grid record 1800.2 for energy threshold  1.0D-06
 Molecular orbitals read from record     2100.2  Type=RKS/CANONICAL (state 1.1)

 Molecular orbital dump at record        2100.1

 ITERATION    DDIFF          GRAD             ENERGY        2-EL.EN.            DIPOLE MOMENTS         DIIS   ORB.
    1      0.000D+00      0.000D+00      -115.71843799    187.321680   -0.60598   -0.00022    0.26032    0    start
    2      0.000D+00      0.162D-03      -115.71845598    187.321732   -0.60597   -0.00143    0.26033    1    diag
    3      0.431D-03      0.150D-04      -115.71845619    187.321675   -0.60597   -0.00109    0.26033    2    diag
    4      0.428D-04      0.218D-05      -115.71845619    187.321744   -0.60597   -0.00127    0.26033    3    diag
    5      0.421D-05      0.602D-06      -115.71845619    187.321674   -0.60597   -0.00123    0.26032    4    diag
    6      0.104D-05      0.153D-06      -115.71845619    187.321714   -0.60597   -0.00123    0.26033    5    diag
    7      0.202D-06      0.266D-07      -115.71845619    187.321709   -0.60597   -0.00123    0.26033    6    diag
    8      0.410D-07      0.248D-08      -115.71845619    187.321708   -0.60597   -0.00123    0.26033    7    orth
    9      0.636D-08      0.150D-08      -115.71845619    187.321709   -0.60597   -0.00123    0.26033    8    diag
   10      0.279D-08      0.183D-09      -115.71845619    187.321709   -0.60597   -0.00123    0.26033    9    diag
   11      0.351D-09      0.181D-10      -115.71845619    187.321709   -0.60597   -0.00123    0.26033    9    diag
   12      0.404D-10      0.271D-11      -115.71845619    187.321709   -0.60597   -0.00123    0.26033    0    orth

 Final occupancy:   9

 !RKS STATE 1.1 Energy               -115.718456192015
 Nuclear energy                        40.35888514
 One-electron energy                 -237.18847326
 Two-electron energy                   93.66085432
 SCF exchange energy                  -14.83114119     Factor= 0.2000
 Density functional                   -12.54972239     B88=-14.87139463 DIRAC=-13.41018790 LYP= -0.59576351 VWN3= -1.51018303
 Virial quotient                       -1.00659297
 !RKS STATE 1.1 Dipole moment          -0.60596942    -0.00123469     0.26032778
 Dipole moment /Debye                  -1.54011977    -0.00313807     0.66164387

 Orbital energies:

         1.1          2.1          3.1          4.1          5.1          6.1          7.1          8.1          9.1         10.1
    -19.128774   -10.226965    -1.012496    -0.668556    -0.500672    -0.434714    -0.419935    -0.322454    -0.261061     0.042506

        11.1
      0.091028

 HOMO      9.1    -0.261061 =      -7.1038eV
 LUMO     10.1     0.042506 =       1.1566eV
 LUMO-HOMO         0.303567 =       8.2605eV


 **********************************************************************************************************************************
 DATASETS  * FILE   NREC   LENGTH (MB)   RECORD NAMES
              1      20       19.42       500      610      700      900      950      970     1000      129      960     1100   
                                          VAR    BASINP    GEOM    SYMINP    ZMAT    AOBASIS   BASIS     P2S    ABASIS      S 
                                         1400     1410     1200     1210     1080     1600     1650     1700     1800     2100   
                                           T        V       H0       H01     AOSYM     SMH    MOLCAS    OPER     GRID      RKS  

              2       7        0.54       700     1000      520     1800     2100     5300     5500   
                                         GEOM     BASIS   MCVARS    GRID      RKS     HESS     HINFO   

 PROGRAMS   *        TOTAL       RKS       RKS       INT
 CPU TIMES  *        21.22      0.48      0.29      0.27
 REAL TIME  *        23.02 SEC
 DISK USED  *       175.90 MB      
 SF USED    *         0.01 MB      
 GA USED    *         0.74 MB       (max)       0.74 MB       (current)
 **********************************************************************************************************************************
1PROGRAM * ALASKA (Gradient of the energy)     Author: R. Lindh

 Orbitals from record         2100.1

 Number of closed-shell orbitals:  9 (  9 )
 Number of occupied orbitals:      9 (  9 )

 Number of electrons= 18     Singlet     Space symmetry=1      Wavefunction type: CLOSED          

 Gradient contributions of integration grid neglected (GRIDGRAD=0).

 DFT GRADIENT, EXFAC=     0.200

 RKS GRADIENT FOR STATE 1.1

 Atom          dE/dx               dE/dy               dE/dz

   1        -0.025611580        -0.000066484        -0.004311891
   2         0.021385684         0.000118787         0.026988634
   3         0.008747251         0.000000797        -0.010285500
   4        -0.004288379        -0.000010448        -0.008393096
   5        -0.000167638         0.005419104        -0.002085797
   6        -0.000056408        -0.005461279        -0.001924995

 Nuclear force contribution to virial =         0.006933951
 Starting task   7.  CPU=    19.04 sec, Elapsed=    19.11 sec
 Incrementing variable R4               by  0.005292 ANG   to    1.117292 ANG


 Recomputing integrals since geometry changed

1PROGRAM * SEWARD (Integral evaluation for generally contracted gaussian basis sets)     Author: Roland Lindh, 1990

 Geometry written to block  1 of record 700

 Orientation using atomic masses  
 Molecule type: Asymmetric top
 Rotational constants:      25.3990618     24.4842958    121.5795584 GHz  (calculated with average atomic masses)

 Point group  C1  



 ATOMIC COORDINATES

 NR  ATOM    CHARGE       X              Y              Z

   1  H       1.00   -1.636432206    0.000000000   -1.904107110
   2  O       8.00    0.133086913    0.000000000   -1.285270762
   3  C       6.00   -0.017871869    0.000000000    1.352249821
   4  H       1.00   -2.036139055    0.000000000    1.916680815
   5  H       1.00    0.886501053    1.738776133    2.137535419
   6  H       1.00    0.886501053   -1.738776133    2.137535419

 Bond lengths in Bohr (Angstrom)

 1-2  1.874608316  2-3  2.641837122  3-4  2.095706272  3-5  2.111375451  3-6  2.111375451
     ( 0.992000000)     ( 1.398000000)     ( 1.109000000)     ( 1.117291772)     ( 1.117291772)

 Bond angles

  1-2-3  106.00000000   2-3-4  108.90000000   2-3-5  110.29461205   2-3-6  110.29461205

  4-3-5  108.20000000   4-3-6  108.20000000   5-3-6  110.87900723

 NUCLEAR CHARGE:                   18
 NUMBER OF PRIMITIVE AOS:          82
 NUMBER OF SYMMETRY AOS:           80
 NUMBER OF CONTRACTIONS:           48   (  48A   )
 NUMBER OF CORE ORBITALS:           2   (   2A   )
 NUMBER OF VALENCE ORBITALS:       12   (  12A   )


 NUCLEAR REPULSION ENERGY   40.32035446


 Eigenvalues of metric

         1 0.962E-02 0.177E-01 0.365E-01 0.404E-01 0.412E-01 0.488E-01 0.524E-01 0.569E-01


 Contracted 2-electron integrals neglected if value below      1.0D-14
 AO integral compression algorithm  1   Integral accuracy      1.0D-14

     6.029 MB (compressed) written to integral file ( 96.4%)

     Node minimum: 0.786 MB, node maximum: 1.049 MB


 NUMBER OF SORTED TWO-ELECTRON INTEGRALS:      99372.     BUFFER LENGTH:  32768
 NUMBER OF SEGMENTS:   1  SEGMENT LENGTH:      99372      RECORD LENGTH: 524288

 Memory used in sort:       0.66 MW

 SORT1 READ      839336. AND WROTE       80967. INTEGRALS IN      1 RECORDS. CPU TIME:     0.03 SEC, REAL TIME:     0.02 SEC
 SORT2 READ      555544. AND WROTE      692076. INTEGRALS IN     21 RECORDS. CPU TIME:     0.00 SEC, REAL TIME:     0.01 SEC

 Node minimum:       98364.  Node maximum:       99372. integrals

 OPERATOR DM      FOR CENTER  0  COORDINATES:    0.000000    0.000000    0.000000
 Density functional group B3LYP3=B88+DIRAC+LYP+VWN3
 Functional: B88(Automatically generated (new) B88)                            Gradient terms: 1
 Functional: DIRAC(Automatically generated (new) DIRAC)                        Gradient terms: 0
 Functional: LYP(Automatically generated (new) LYP)                            Gradient terms: 1
 Functional: VWN3(Automatically generated (new) VWN3)                          Gradient terms: 0
 Use grid at  1800.2
 

 Exact exchange will be calculated, factor:  0.2000

 Functional: B88                       Factor:  0.7200
 Functional: DIRAC                     Factor:  0.0800
 Functional: LYP                       Factor:  0.8100
 Functional: VWN3                      Factor:  0.1900
 
 Computed new grid on record 1800.1 in CPU time    0.0
   42186 words reserved for DFT integration

 PROGRAM * RKS-SCF (Restricted closed shell Kohn-Sham)     Authors: W. Meyer, H.-J. Werner, P.J. Knowles, 1993

[...]
        12     0.5045067     0.0000431     0.2671858     0.0000525     0.6075949     0.1727298    -0.1718271     0.0000414
        13     0.1542527     0.0827694     0.1508268    -0.3758748    -0.2756877    -0.4007264    -0.2688242     0.3233803
        14    -0.0272199    -0.1761112    -0.0804572     0.0534599    -0.0411096     0.4055831    -0.4778115     0.5400307
        15    -0.0850855     0.5582197    -0.1861809     0.3041632     0.3838226    -0.3680357    -0.2008381     0.2351035
        16     0.1542545    -0.0827619     0.1508642     0.3758116    -0.2757339    -0.4008284    -0.2687616    -0.3233061
        17     0.0271969    -0.1760780     0.0804487     0.0533676     0.0411484    -0.4055106     0.4778997     0.5401446
        18    -0.0850793    -0.5582844    -0.1861218    -0.3041369     0.3838713    -0.3680112    -0.2008501    -0.2351203
                  17            18
         1    -0.0190441     0.9024223
         2    -0.0000023    -0.0000015
         3    -0.0013122     0.3544084
         4     0.0088434    -0.2235587
         5     0.0000009     0.0000005
         6    -0.0021021    -0.0976158
         7    -0.3101923    -0.0091837
         8    -0.0000158    -0.0000000
         9     0.0017390     0.0064003
        10     0.7545633     0.0141946
        11    -0.0000696    -0.0000008
        12    -0.2522052     0.0040422
        13     0.1500911     0.0028884
        14     0.3103896     0.0079505
        15     0.1279789     0.0041851
        16     0.1499440     0.0028860
        17    -0.3102669    -0.0079500
        18     0.1279105     0.0041853

 Imaginary Vibration  Wavenumber
        Nr             [1/cm] 
        1              337.40

   Low Vibration      Wavenumber
        Nr             [1/cm] 
        1                0.00
        2                0.00
        3                0.00
        4                0.00
        5                0.00
        6                0.00

     Vibration        Wavenumber
        Nr             [1/cm] 
        1             1055.01
        2             1076.71
        3             1174.76
        4             1358.53
        5             1456.34
        6             1466.86
        7             1490.45
        8             2988.42
        9             3043.92
       10             3060.17
       11             3824.70

 FREQUENCIES * CALCULATION OF NORMAL MODES FOR RKS-SCF


 Atomic Coordinates

  Nr  Atom  Charge       X              Y              Z

   1   H     1.00   -1.576681744    0.000001520   -1.963474411
   2   O     8.00    0.124417287    0.000000169   -1.308488797
   3   C     6.00   -0.023116506    0.000000151    1.371972888
   4   H     1.00   -1.986028573    0.000173432    2.084476676
   5   H     1.00    0.931779314    1.688519443    2.150089876
   6   H     1.00    0.931475094   -1.688698875    2.150073109

 Frequencies dumped to record   5400.2

 Gradient norm at reference geometry: 0.22558D-03

 Normal Modes

                              1 A         2 A         3 A         4 A         5 A  
 Wavenumbers [cm-1]         1055.01     1076.71     1174.76     1358.53     1456.34
 Intensities [km/mol]         99.79       16.58        0.29       24.94        1.31
 Intensities [relative]      100.00       16.61        0.29       24.99        1.31
           HX1              0.21237     0.09014    -0.00000    -0.21989     0.00000
           HY1              0.00001    -0.00000    -0.12532     0.00001    -0.01584
           HZ1             -0.40819    -0.32725     0.00002     0.72404    -0.00001
           OX2             -0.00402     0.02102    -0.00000     0.07031    -0.00000
           OY2              0.00000    -0.00000    -0.04520    -0.00000    -0.00918
           OZ2              0.12917    -0.11617     0.00001    -0.00760    -0.00000
           CX3             -0.04966    -0.06653     0.00000    -0.10103    -0.00000
           CY3             -0.00000     0.00001     0.12259    -0.00000    -0.05390
           CZ3             -0.11802     0.15426    -0.00001    -0.04185    -0.00001
           HX4              0.10198     0.06170    -0.00001     0.00730     0.00008
           HY4              0.00001    -0.00001    -0.26721     0.00002     0.69743
           HZ4              0.31215     0.50252     0.00004     0.26613     0.00005
           HX5              0.17060     0.15364     0.08244     0.15023    -0.37439
           HY5             -0.04358    -0.02711    -0.17542    -0.08014     0.05325
           HZ5             -0.27400    -0.08475     0.55602    -0.18545     0.30296
           HX6              0.17062     0.15365    -0.08244     0.15027     0.37433
           HY6              0.04358     0.02709    -0.17538     0.08013     0.05316
           HZ6             -0.27391    -0.08474    -0.55608    -0.18539    -0.30294

                              6 A         7 A         8 A         9 A        10 A  
 Wavenumbers [cm-1]         1466.86     1490.45     2988.42     3043.92     3060.17
 Intensities [km/mol]         10.90        3.95       55.83       63.92       54.90
 Intensities [relative]       10.92        3.96       55.95       64.05       55.02
           HX1             -0.01168    -0.01371     0.00445     0.00000    -0.01897
           HY1             -0.00000     0.00000    -0.00000    -0.00880    -0.00000
           HZ1              0.02047     0.07247    -0.00113     0.00000    -0.00131
           OX2              0.00719     0.01429    -0.00065    -0.00000     0.00221
           OY2              0.00000    -0.00000     0.00000     0.00141     0.00000
           OZ2             -0.01435     0.00678     0.00231     0.00000    -0.00053
           CX3              0.01734     0.04335     0.00247     0.00000    -0.08950
           CY3              0.00000    -0.00000    -0.00000    -0.08956    -0.00000
           CZ3             -0.09756     0.03198     0.04496    -0.00000     0.00050
           HX4              0.24015     0.06874     0.51192    -0.00013     0.75159
           HY4             -0.00007    -0.00003    -0.00005    -0.02216    -0.00007
           HZ4              0.60520     0.17205    -0.17115     0.00004    -0.25121
           HX5             -0.27460    -0.39914    -0.26776     0.32210     0.14950
           HY5             -0.04095     0.40398    -0.47593     0.53790     0.30916
           HZ5              0.38231    -0.36658    -0.20005     0.23418     0.12747
           HX6             -0.27465    -0.39925    -0.26770    -0.32203     0.14935
           HY6              0.04099    -0.40391     0.47601     0.53801    -0.30904
           HZ6              0.38236    -0.36656    -0.20006    -0.23419     0.12741

                             11 A  
 Wavenumbers [cm-1]         3824.70
 Intensities [km/mol]         30.56
 Intensities [relative]       30.62
           HX1              0.89886
           HY1             -0.00000
           HZ1              0.35301
           OX2             -0.05589
           OY2              0.00000
           OZ2             -0.02440
           CX3             -0.00265
           CY3             -0.00000
           CZ3              0.00185
           HX4              0.01414
           HY4             -0.00000
           HZ4              0.00403
           HX5              0.00288
           HY5              0.00792
           HZ5              0.00417
           HX6              0.00287
           HY6             -0.00792
           HZ6              0.00417


 Normal Modes of imaginary frequencies

                                  1
 Wavenumbers [cm-1]          337.40
 Intensities [km/mol]         71.87
 Intensities [relative]       72.02
           HX1              0.00000
           HY1              0.84714
           HZ1             -0.00000
           OX2             -0.00000
           OY2             -0.06877
           OZ2             -0.00000
           CX3              0.00000
           CY3              0.01970
           CZ3              0.00000
           HX4             -0.00002
           HY4             -0.25738
           HZ4             -0.00000
           HX5             -0.21226
           HY5              0.13359
           HZ5              0.03699
           HX6              0.21227
           HY6              0.13356
           HZ6             -0.03698


 Normal Modes of low/zero frequencies

                                  1           2           3           4           5
 Wavenumbers [cm-1]            0.00        0.00        0.00        0.00        0.00
 Intensities [km/mol]          0.00        0.00        0.00        0.00        0.00
 Intensities [relative]        0.00        0.00        0.00        0.00        0.00
           HX1             -0.03725     0.04684    -0.15718    -0.13185     0.18385
           HY1             -0.07796    -0.30834    -0.02371     0.12706     0.03377
           HZ1              0.12363     0.09748     0.07253     0.16390    -0.05773
           OX2              0.01195     0.03220    -0.12145    -0.09666     0.16398
           OY2             -0.04825    -0.02947     0.17061    -0.03647     0.08492
           OZ2             -0.00415     0.13550    -0.02027     0.07250    -0.00612
           CX3              0.21330    -0.02770     0.02478     0.04736     0.08266
           CY3             -0.09055    -0.00802     0.03669     0.13961     0.13959
           CZ3              0.00693     0.13220    -0.01222     0.08043    -0.01060
           HX4              0.26681    -0.04365     0.06363     0.08567     0.06104
           HY4             -0.14614    -0.30533    -0.25033     0.41514     0.11228
           HZ4              0.15438     0.08833     0.09487     0.18589    -0.07015
           HX5              0.23282    -0.31107    -0.15346     0.28994     0.02232
           HY5             -0.07984     0.15537     0.12822     0.07209     0.17716
           HZ5             -0.04029     0.12539     0.00790    -0.07074    -0.01809
           HX6              0.31067     0.22091     0.28795    -0.11162     0.09579
           HY6             -0.07984     0.15532     0.12818     0.07212     0.17715
           HZ6             -0.08928     0.18169    -0.13652     0.12902     0.05483

                                  6
 Wavenumbers [cm-1]            0.00
 Intensities [km/mol]          0.00
 Intensities [relative]        0.00
           HX1              0.04916
           HY1              0.37341
           HZ1              0.06036
           OX2              0.03943
           OY2              0.12164
           OZ2              0.08562
           CX3             -0.00036
           CY3             -0.09126
           CZ3              0.08343
           HX4             -0.01092
           HY4              0.07334
           HZ4              0.05430
           HX5              0.18224
           HY5             -0.26779
           HZ5              0.24241
           HX6             -0.20609
           HY6             -0.26775
           HZ6             -0.04722


 Zero point energy:  0.05011028 [H]    10997.93 [1/CM]      131.56 [KJ/MOL]

 Recomputing wavefunction at initial geometry


 Recomputing integrals since geometry changed

1PROGRAM * SEWARD (Integral evaluation for generally contracted gaussian basis sets)     Author: Roland Lindh, 1990

 Geometry written to block  1 of record 700

 Orientation using atomic masses  
 Molecule type: Asymmetric top
 Rotational constants:      24.6097961     23.7243705    126.7989006 GHz  (calculated with average atomic masses)

 Point group  C1  



 ATOMIC COORDINATES

 NR  ATOM    CHARGE       X              Y              Z

   1  H       1.00   -1.576681744    0.000001520   -1.963474411
   2  O       8.00    0.124417287    0.000000169   -1.308488797
   3  C       6.00   -0.023116506    0.000000151    1.371972888
   4  H       1.00   -1.986028573    0.000173432    2.084476676
   5  H       1.00    0.931779314    1.688519443    2.150089876
   6  H       1.00    0.931475094   -1.688698875    2.150073109

 Bond lengths in Bohr (Angstrom)

 1-2  1.822839562  2-3  2.684518778  3-4  2.088225433  3-5  2.090069251  3-6  2.090069251
     ( 0.964605155)     ( 1.420586159)     ( 1.105041311)     ( 1.106017017)     ( 1.106017017)

 Bond angles

  1-2-3  107.90813232   2-3-4  113.10044469   2-3-5  110.28079846   2-3-6  110.28079846

  4-3-5  107.59956528   4-3-6  107.59956528   5-3-6  107.78644825

 NUCLEAR CHARGE:                   18
 NUMBER OF PRIMITIVE AOS:          82
 NUMBER OF SYMMETRY AOS:           80
 NUMBER OF CONTRACTIONS:           48   (  48A   )
 NUMBER OF CORE ORBITALS:           2   (   2A   )
 NUMBER OF VALENCE ORBITALS:       12   (  12A   )


 NUCLEAR REPULSION ENERGY   40.11196096

 Eigenvalues of metric

         1 0.981E-02 0.176E-01 0.347E-01 0.389E-01 0.396E-01 0.498E-01 0.510E-01 0.551E-01


 Contracted 2-electron integrals neglected if value below      1.0D-14
 AO integral compression algorithm  1   Integral accuracy      1.0D-14

     7.340 MB (compressed) written to integral file ( 92.7%)

     Node minimum: 1.049 MB, node maximum: 1.049 MB


 NUMBER OF SORTED TWO-ELECTRON INTEGRALS:      99372.     BUFFER LENGTH:  32768
 NUMBER OF SEGMENTS:   1  SEGMENT LENGTH:      99372      RECORD LENGTH: 524288

 Memory used in sort:       0.66 MW

 SORT1 READ      839336. AND WROTE       97715. INTEGRALS IN      1 RECORDS. CPU TIME:     0.02 SEC, REAL TIME:     0.02 SEC
 SORT2 READ      681500. AND WROTE      692076. INTEGRALS IN     28 RECORDS. CPU TIME:     0.01 SEC, REAL TIME:     0.01 SEC

 Node minimum:       98364.  Node maximum:       99372. integrals

 OPERATOR DM      FOR CENTER  0  COORDINATES:    0.000000    0.000000    0.000000
 Density functional group B3LYP3=B88+DIRAC+LYP+VWN3
 Functional: B88(Automatically generated (new) B88)                            Gradient terms: 1
 Functional: DIRAC(Automatically generated (new) DIRAC)                        Gradient terms: 0
 Functional: LYP(Automatically generated (new) LYP)                            Gradient terms: 1
 Functional: VWN3(Automatically generated (new) VWN3)                          Gradient terms: 0
 Use grid at  1800.2
 

 Exact exchange will be calculated, factor:  0.2000

 Functional: B88                       Factor:  0.7200
 Functional: DIRAC                     Factor:  0.0800
 Functional: LYP                       Factor:  0.8100
 Functional: VWN3                      Factor:  0.1900
 
 Generated new metagrid on record  1800.2 with target accuracy 1.0D-06 and 22204 points in CPU time    0.1
 Computed new grid on record 1800.1 in CPU time    0.1
   42186 words reserved for DFT integration

 PROGRAM * RKS-SCF (Restricted closed shell Kohn-Sham)     Authors: W. Meyer, H.-J. Werner, P.J. Knowles, 1993

 NUMBER OF ELECTRONS:       9+    9-    SPACE SYMMETRY=1    SPIN SYMMETRY: Singlet 
 CONVERGENCE THRESHOLDS:    1.00E-10 (Density)    1.00E-10 (Energy)
 MAX. NUMBER OF ITERATIONS:      300
 INTERPOLATION TYPE:            DIIS
 INTERPOLATION STEPS:              2 (START)      1 (STEP)
 LEVEL SHIFTS:                  0.00 (CLOSED)  0.00 (OPEN) 

 Number of closed-shell orbitals:    9 (   9 )


 Use fine grid record 1800.2 for energy threshold  1.0D-06
 Molecular orbitals read from record     2100.2  Type=RKS/CANONICAL (state 1.1)

 Molecular orbital dump at record        2100.2

 ITERATION    DDIFF          GRAD             ENERGY        2-EL.EN.            DIPOLE MOMENTS         DIIS   ORB.
    1      0.000D+00      0.000D+00      -115.72067800    186.825631   -0.59255    0.00001    0.27872    0    start
    2      0.000D+00      0.155D-11      -115.72067800    186.825631   -0.59255    0.00001    0.27872    0    orth

 Final occupancy:   9

 !RKS STATE 1.1 Energy               -115.720677999876
 Nuclear energy                        40.11196096
 One-electron energy                 -236.69229666
 Two-electron energy                   93.41281565
 SCF exchange energy                  -14.83650892     Factor= 0.2000
 Density functional                   -12.55315794     B88=-14.87593191 DIRAC=-13.41343375 LYP= -0.59559955 VWN3= -1.51040335
 Virial quotient                       -1.00655206
 !RKS STATE 1.1 Dipole moment          -0.59254751     0.00000633     0.27872021
 Dipole moment /Debye                  -1.50600689     0.00001608     0.70838971

 Orbital energies:

         1.1          2.1          3.1          4.1          5.1          6.1          7.1          8.1          9.1         10.1
    -19.128033   -10.227075    -1.009114    -0.675489    -0.500814    -0.429232    -0.418559    -0.327221    -0.262187     0.051272

        11.1
      0.090842

 HOMO      9.1    -0.262187 =      -7.1345eV
 LUMO     10.1     0.051272 =       1.3952eV
 LUMO-HOMO         0.313459 =       8.5297eV


 **********************************************************************************************************************************
 DATASETS  * FILE   NREC   LENGTH (MB)   RECORD NAMES
              1      19       19.22       500      610      700      900      950      970     1000      129      960     1100   
                                          VAR    BASINP    GEOM    SYMINP    ZMAT    AOBASIS   BASIS     P2S    ABASIS      S 
                                         1400     1410     1200     1210     1080     1600     1650     1700     1800   
                                           T        V       H0       H01     AOSYM     SMH    MOLCAS    OPER     GRID   

              2      11        0.84       700     1000      520     1800     2100     5300      701     5500     5301     5400   
                                         GEOM     BASIS   MCVARS    GRID      RKS     HESS     GEOM     HINFO    HESS     FREQ   
                                         5450   
                                         NMOD   

 PROGRAMS   *        TOTAL       RKS      OPTG       RKS       INT
 CPU TIMES  *       165.63      0.36     43.50      0.29      0.27
 REAL TIME  *       170.88 SEC
 DISK USED  *       179.84 MB      
 SF USED    *         0.01 MB      
 GA USED    *         0.78 MB       (max)       0.78 MB       (current)
 **********************************************************************************************************************************


 **********************************************************************************************************************************
 DATASETS  * FILE   NREC   LENGTH (MB)   RECORD NAMES
              1      19       19.22       500      610      700      900      950      970     1000      129      960     1100   
                                          VAR    BASINP    GEOM    SYMINP    ZMAT    AOBASIS   BASIS     P2S    ABASIS      S 
                                         1400     1410     1200     1210     1080     1600     1650     1700     1800   
                                           T        V       H0       H01     AOSYM     SMH    MOLCAS    OPER     GRID   

              2      11        0.84       700     1000      520     1800     2100     5300      701     5500     5301     5400   
                                         GEOM     BASIS   MCVARS    GRID      RKS     HESS     GEOM     HINFO    HESS     FREQ   
                                         5450   
                                         NMOD   

 PROGRAMS   *        TOTAL      FREQ      OPTG       RKS       INT
 CPU TIMES  *       165.63    121.45     43.50      0.29      0.27
 REAL TIME  *       170.88 SEC
 DISK USED  *       179.84 MB      
 SF USED    *         0.01 MB      
 GA USED    *         0.78 MB       (max)       0.78 MB       (current)
 **********************************************************************************************************************************

 RB3LYP3/cc-pVDZ energy=   -115.720677999876

       OPTG(RKS)        RKS-SCF 
   -115.72067800   -115.71845588
 **********************************************************************************************************************************
 Variable memory released
