
                                 *****************
                                 * O   R   C   A *
                                 *****************

           --- An Ab Initio, DFT and Semiempirical electronic structure package ---

                  #######################################################
                  #                        -***-                        #
                  #  Department of molecular theory and spectroscopy    #
                  #              Directorship: Frank Neese              #
                  # Max Planck Institute for Chemical Energy Conversion #
                  #                  D-45470 Muelheim/Ruhr              #
                  #                       Germany                       #
                  #                                                     #
                  #                  All rights reserved                #
                  #                        -***-                        #
                  #######################################################


                         Program Version 4.0.1.2 - RELEASE -


 With contributions from (in alphabetic order):
   Daniel Aravena         : Magnetic Properties
   Michael Atanasov       : Ab Initio Ligand Field Theory
   Ute Becker             : Parallelization
   Martin Brehm           : Molecular dynamics
   Dmytro Bykov           : SCF Hessian
   Vijay G. Chilkuri      : MRCI spin determinant printing
   Dipayan Datta          : RHF DLPNO-CCSD density
   Achintya Kumar Dutta   : EOM-CC, STEOM-CC
   Dmitry Ganyushin       : Spin-Orbit,Spin-Spin,Magnetic field MRCI
   Yang Guo               : DLPNO-NEVPT2, CIM, IAO-localization
   Andreas Hansen         : Spin unrestricted coupled pair/coupled cluster methods
   Lee Huntington         : MR-EOM, pCC
   Robert Izsak           : Overlap fitted RIJCOSX, COSX-SCS-MP3, EOM
   Christian Kollmar      : KDIIS, OOCD, Brueckner-CCSD(T), CCSD density
   Simone Kossmann        : Meta GGA functionals, TD-DFT gradient, OOMP2, MP2 Hessian
   Martin Krupicka        : AUTO-CI
   Dagmar Lenk            : GEPOL surface
   Dimitrios Liakos       : Extrapolation schemes; parallel MDCI
   Dimitrios Manganas     : ROCIS; embedding schemes
   Dimitrios Pantazis     : SARC Basis sets
   Taras Petrenko         : DFT Hessian,TD-DFT gradient, ASA, ECA, R-Raman, ABS, FL, XAS/XES, NRVS
   Peter Pinski           : DLPNO-MP2
   Christoph Reimann      : Effective Core Potentials
   Marius Retegan         : Local ZFS, SOC
   Christoph Riplinger    : Optimizer, TS searches, QM/MM, DLPNO-CCSD(T), (RO)-DLPNO pert. Triples
   Tobias Risthaus        : Range-separated hybrids, TD-DFT gradient, RPA, STAB
   Michael Roemelt        : Restricted open shell CIS
   Masaaki Saitow         : Open-shell DLPNO
   Barbara Sandhoefer     : DKH picture change effects
   Kantharuban Sivalingam : CASSCF convergence, NEVPT2, FIC-MRCI
   Georgi Stoychev        : AutoAux
   Boris Wezisla          : Elementary symmetry handling
   Frank Wennmohs         : Technical directorship


 We gratefully acknowledge several colleagues who have allowed us to
 interface, adapt or use parts of their codes:
   Stefan Grimme, W. Hujo, H. Kruse,             : VdW corrections, initial TS optimization,
                  C. Bannwarth                     DFT functionals, gCP, sTDA/sTD-DF
   Ed Valeev                                     : LibInt (2-el integral package), F12 methods
   Garnet Chan, S. Sharma, J. Yang, R. Olivares  : DMRG
   Ulf Ekstrom                                   : XCFun DFT Library
   Mihaly Kallay                                 : mrcc  (arbitrary order and MRCC methods)
   Andreas Klamt, Michael Diedenhofen            : otool_cosmo (COSMO solvation model)
   Jiri Pittner, Ondrej Demel                    : Mk-CCSD
   Frank Weinhold                                : gennbo (NPA and NBO analysis)
   Christopher J. Cramer and Donald G. Truhlar   : smd solvation model


 Your calculation uses the libint2 library for the computation of 2-el integrals
 For citations please refer to: http://libint.valeyev.net

 This ORCA versions uses:
   CBLAS   interface :  Fast vector & matrix operations
   LAPACKE interface :  Fast linear algebra routines
   SCALAPACK package :  Parallel linear algebra routines


Your calculation utilizes the basis: 6-31G*
   H-He, Li-Ne : W. J. Hehre, R. Ditchfield and J.A. Pople, J. Chem. Phys. 56, 2257 (1972).
                 Note: He and Ne are unpublished basis sets taken from the Gaussian program.
                 Note: Li and B from J. D. Dill and J. A. Pople, J. Chem. Phys. 62, 2921 (1975).
   Na - Ar     : M. M. Francl, W. J. Pietro, W. J. Hehre, J. S. Binkley, M. S. Gordon, 
                 D. J. DeFrees and J. A. Pople, J. Chem. Phys. 77, 3654 (1982).
   K - Zn      : V. A. Rassolov, J. A. Pople, M. A. Ratner, and T. L. Windus, J. Chem. Phys. 109, 1223 (1998).

================================================================================
                                        WARNINGS
                       Please study these warnings very carefully!
================================================================================

Warning: TCutStore was < 0. Adjusted to Thresh (uncritical)

WARNING: MDCI localization requested with randomization but with NAttempts smaller than number of processes
  ===> : Setting NAttempts = Number of parallel processes!

WARNING: Post HF methods need fully converged wavefunctions
  ===> : Setting SCFConvForced true
         You can overwrite this default with %scf ConvForced false 


INFO   : the flag for use of LIBINT has been found!

================================================================================
                                       INPUT FILE
================================================================================
NAME = /scratch/kmoore/ORCASCR_1548041040675800151/input.dat
|  1> # Orca 4.0 Computation 
|  2> 
|  3> ! RHF CCSD
|  4> ! 6-31G*
|  5> 
|  6> * xyz 0 1
|  7>  O          0.0000000000       -0.0530229169        0.0000000000
|  8>  H          0.0000000000        0.5556614584       -0.7504910643
|  9>  H          0.0000000000        0.5556614584        0.7504910643
| 10> *
| 11> 
| 12> 
| 13>                          ****END OF INPUT****
================================================================================

                       ****************************
                       * Single Point Calculation *
                       ****************************

---------------------------------
CARTESIAN COORDINATES (ANGSTROEM)
---------------------------------
  O      0.000000   -0.053023    0.000000
  H      0.000000    0.555661   -0.750491
  H      0.000000    0.555661    0.750491

----------------------------
CARTESIAN COORDINATES (A.U.)
----------------------------
  NO LB      ZA    FRAG     MASS         X           Y           Z
   0 O     8.0000    0    15.999    0.000000   -0.100199    0.000000
   1 H     1.0000    0     1.008    0.000000    1.050048   -1.418223
   2 H     1.0000    0     1.008    0.000000    1.050048    1.418223

--------------------------------
INTERNAL COORDINATES (ANGSTROEM)
--------------------------------
 O      0   0   0     0.000000000000     0.00000000     0.00000000
 H      1   0   0     0.966298870085     0.00000000     0.00000000
 H      1   2   0     0.966298870085   101.91256806     0.00000000

---------------------------
INTERNAL COORDINATES (A.U.)
---------------------------
 O      0   0   0     0.000000000000     0.00000000     0.00000000
 H      1   0   0     1.826040227979     0.00000000     0.00000000
 H      1   2   0     1.826040227979   101.91256806     0.00000000

---------------------
BASIS SET INFORMATION
---------------------
There are 2 groups of distinct atoms

 Group   1 Type O   : 10s4p1d contracted to 3s2p1d pattern {631/31/1}
 Group   2 Type H   : 4s contracted to 2s pattern {31}

Atom   0O    basis set group =>   1
Atom   1H    basis set group =>   2
Atom   2H    basis set group =>   2
------------------------------------------------------------------------------
                           ORCA GTO INTEGRAL CALCULATION
------------------------------------------------------------------------------

                         BASIS SET STATISTICS AND STARTUP INFO

 # of primitive gaussian shells          ...   23
 # of primitive gaussian functions       ...   35
 # of contracted shells                  ...   10
 # of contracted basis functions         ...   18
 Highest angular momentum                ...    2
 Maximum contraction depth               ...    6
 Integral package used                   ... LIBINT
 Integral threshhold            Thresh   ...  1.000e-10
 Primitive cut-off              TCut     ...  1.000e-11


------------------------------ INTEGRAL EVALUATION ----------------------------


 * One electron integrals 
 Pre-screening matrix                    ... done
 Shell pair data                         ... done (   0.000 sec)

-------------------------------------------------------------------------------
                                 ORCA SCF
-------------------------------------------------------------------------------

------------
SCF SETTINGS
------------
Hamiltonian:
 Ab initio Hamiltonian  Method          .... Hartree-Fock(GTOs)


General Settings:
 Integral files         IntName         .... /scratch/kmoore/ORCASCR_1548041040675800151/input
 Hartree-Fock type      HFTyp           .... RHF
 Total Charge           Charge          ....    0
 Multiplicity           Mult            ....    1
 Number of Electrons    NEL             ....   10
 Basis Dimension        Dim             ....   18
 Nuclear Repulsion      ENuc            ....      9.1146829499 Eh

Convergence Acceleration:
 DIIS                   CNVDIIS         .... on
   Start iteration      DIISMaxIt       ....    12
   Startup error        DIISStart       ....  0.200000
   # of expansion vecs  DIISMaxEq       ....     5
   Bias factor          DIISBfac        ....   1.050
   Max. coefficient     DIISMaxC        ....  10.000
 Newton-Raphson         CNVNR           .... off
 SOSCF                  CNVSOSCF        .... on
   Start iteration      SOSCFMaxIt      ....   150
   Startup grad/error   SOSCFStart      ....  0.003300
 Level Shifting         CNVShift        .... on
   Level shift para.    LevelShift      ....    0.2500
   Turn off err/grad.   ShiftErr        ....    0.0010
 Zerner damping         CNVZerner       .... off
 Static damping         CNVDamp         .... on
   Fraction old density DampFac         ....    0.7000
   Max. Damping (<1)    DampMax         ....    0.9800
   Min. Damping (>=0)   DampMin         ....    0.0000
   Turn off err/grad.   DampErr         ....    0.1000
 Fernandez-Rico         CNVRico         .... off

SCF Procedure:
 Maximum # iterations   MaxIter         ....   125
 SCF integral mode      SCFMode         .... Direct
   Integral package                     .... LIBINT
 Reset frequeny         DirectResetFreq ....    20
 Integral Threshold     Thresh          ....  1.000e-10 Eh
 Primitive CutOff       TCut            ....  1.000e-11 Eh

Convergence Tolerance:
 Convergence Check Mode ConvCheckMode   .... Total+1el-Energy
 Convergence forced     ConvForced      .... 1
 Energy Change          TolE            ....  1.000e-06 Eh
 1-El. energy change                    ....  1.000e-03 Eh
 Orbital Gradient       TolG            ....  5.000e-05
 Orbital Rotation angle TolX            ....  5.000e-05
 DIIS Error             TolErr          ....  1.000e-06


Diagonalization of the overlap matrix:
Smallest eigenvalue                        ... 6.321e-02
Time for diagonalization                   ...    0.000 sec
Threshold for overlap eigenvalues          ... 1.000e-08
Number of eigenvalues below threshold      ... 0
Time for construction of square roots      ...    0.000 sec
Total time needed                          ...    0.001 sec

-------------------
DFT GRID GENERATION
-------------------

General Integration Accuracy     IntAcc      ...  4.340
Radial Grid Type                 RadialGrid  ... Gauss-Chebyshev
Angular Grid (max. acc.)         AngularGrid ... Lebedev-110
Angular grid pruning method      GridPruning ... 3 (G Style)
Weight generation scheme         WeightScheme... Becke
Basis function cutoff            BFCut       ...    1.0000e-10
Integration weight cutoff        WCut        ...    1.0000e-14
Grids for H and He will be reduced by one unit

# of grid points (after initial pruning)     ...   3304 (   0.0 sec)
# of grid points (after weights+screening)   ...   3246 (   0.0 sec)
nearest neighbour list constructed           ...    0.0 sec
Grid point re-assignment to atoms done       ...    0.0 sec
Grid point division into batches done        ...    0.0 sec
Reduced shell lists constructed in    0.0 sec

Total number of grid points                  ...     3246
Total number of batches                      ...       52
Average number of points per batch           ...       62
Average number of grid points per atom       ...     1082
Average number of shells per batch           ...     9.40 (93.96%)
Average number of basis functions per batch  ...    17.13 (95.18%)
Average number of large shells per batch     ...     9.06 (96.39%)
Average number of large basis fcns per batch ...    16.57 (96.70%)
Maximum spatial batch extension              ...  21.59, 21.60, 13.10 au
Average spatial batch extension              ...   5.92,  5.20,  4.45 au

Time for grid setup =    0.012 sec

------------------------------
INITIAL GUESS: MODEL POTENTIAL
------------------------------
Loading Hartree-Fock densities                     ... done
Calculating cut-offs                               ... done
Setting up the integral package                    ... done
Initializing the effective Hamiltonian             ... done
Starting the Coulomb interaction                   ... done (   0.0 sec)
Reading the grid                                   ... done
Mapping shells                                     ... done
Starting the XC term evaluation                    ... done (   0.0 sec)
Transforming the Hamiltonian                       ... done (   0.0 sec)
Diagonalizing the Hamiltonian                      ... done (   0.0 sec)
Back transforming the eigenvectors                 ... done (   0.0 sec)
Now organizing SCF variables                       ... done
                      ------------------
                      INITIAL GUESS DONE (   0.1 sec)
                      ------------------
--------------
SCF ITERATIONS
--------------
ITER       Energy         Delta-E        Max-DP      RMS-DP      [F,P]     Damp
               ***  Starting incremental Fock matrix formation  ***
  0    -75.9131629731   0.000000000000 0.06756782  0.00828448  0.3168846 0.7000
  1    -75.9506598170  -0.037496843928 0.04681851  0.00560121  0.1914752 0.7000
                               ***Turning on DIIS***
  2    -75.9705769344  -0.019917117318 0.02740338  0.00304048  0.1061086 0.7000
  3    -76.1424761552  -0.171899220848 0.04311366  0.00401650  0.0587518 0.0000
  4    -75.9927387181   0.149737437127 0.00844857  0.00091524  0.0132613 0.0000
                      *** Initiating the SOSCF procedure ***
                           *** Shutting down DIIS ***
                      *** Re-Reading the Fockian *** 
                      *** Removing any level shift *** 
ITER      Energy       Delta-E        Grad      Rot      Max-DP    RMS-DP
  5    -76.01219779  -0.0194590722  0.001582  0.001582  0.002016  0.000238
               *** Restarting incremental Fock matrix formation ***
  6    -76.00834803   0.0038497601  0.000531  0.000674  0.000698  0.000119
  7    -76.00835001  -0.0000019814  0.000318  0.000448  0.000810  0.000089
  8    -76.00835039  -0.0000003820  0.000106  0.000052  0.000127  0.000014
                 **** Energy Check signals convergence ****
              ***Rediagonalizing the Fockian in SOSCF/NRSCF***

               *****************************************************
               *                     SUCCESS                       *
               *           SCF CONVERGED AFTER   9 CYCLES          *
               *****************************************************


----------------
TOTAL SCF ENERGY
----------------

Total Energy       :          -76.00835042 Eh           -2068.29236 eV

Components:
Nuclear Repulsion  :            9.11468295 Eh             248.02313 eV
Electronic Energy  :          -85.12303337 Eh           -2316.31550 eV
One Electron Energy:         -122.91265930 Eh           -3344.62350 eV
Two Electron Energy:           37.78962593 Eh            1028.30800 eV

Virial components:
Potential Energy   :         -151.95427973 Eh           -4134.88617 eV
Kinetic Energy     :           75.94592932 Eh            2066.59380 eV
Virial Ratio       :            2.00082192


---------------
SCF CONVERGENCE
---------------

  Last Energy change         ...   -2.4365e-08  Tolerance :   1.0000e-06
  Last MAX-Density change    ...    2.9109e-05  Tolerance :   1.0000e-05
  Last RMS-Density change    ...    2.6238e-06  Tolerance :   1.0000e-06
  Last Orbital Gradient      ...    2.3421e-05  Tolerance :   5.0000e-05
  Last Orbital Rotation      ...    1.4971e-05  Tolerance :   5.0000e-05

             **** THE GBW FILE WAS UPDATED (/scratch/kmoore/ORCASCR_1548041040675800151/input.gbw) ****
             **** DENSITY FILE WAS UPDATED (/scratch/kmoore/ORCASCR_1548041040675800151/input.scfp.tmp) ****
             **** ENERGY FILE WAS UPDATED (/scratch/kmoore/ORCASCR_1548041040675800151/input.en.tmp) ****
----------------
ORBITAL ENERGIES
----------------

  NO   OCC          E(Eh)            E(eV) 
   0   2.0000     -20.558216      -559.4175 
   1   2.0000      -1.338946       -36.4346 
   2   2.0000      -0.696928       -18.9644 
   3   2.0000      -0.574681       -15.6379 
   4   2.0000      -0.498038       -13.5523 
   5   0.0000       0.212177         5.7736 
   6   0.0000       0.301742         8.2108 
   7   0.0000       1.007196        27.4072 
   8   0.0000       1.166904        31.7531 
   9   0.0000       1.167562        31.7710 
  10   0.0000       1.200382        32.6641 
  11   0.0000       1.375995        37.4427 
  12   0.0000       1.663067        45.2543 
  13   0.0000       2.015268        54.8382 
  14   0.0000       2.037737        55.4496 
  15   0.0000       2.066120        56.2220 
  16   0.0000       2.619421        71.2781 
  17   0.0000       2.926353        79.6301 

                    ********************************
                    * MULLIKEN POPULATION ANALYSIS *
                    ********************************

-----------------------
MULLIKEN ATOMIC CHARGES
-----------------------
   0 O :   -0.891552
   1 H :    0.445776
   2 H :    0.445776
Sum of atomic charges:   -0.0000000

--------------------------------
MULLIKEN REDUCED ORBITAL CHARGES
--------------------------------
  0 O s       :     3.898802  s :     3.898802
      pz      :     1.334270  p :     4.961305
      px      :     1.997666
      py      :     1.629369
      dz2     :     0.000109  d :     0.031445
      dxz     :     0.000000
      dyz     :     0.022428
      dx2y2   :     0.006575
      dxy     :     0.002334
  1 H s       :     0.554224  s :     0.554224
  2 H s       :     0.554224  s :     0.554224


                     *******************************
                     * LOEWDIN POPULATION ANALYSIS *
                     *******************************

----------------------
LOEWDIN ATOMIC CHARGES
----------------------
   0 O :   -0.650519
   1 H :    0.325260
   2 H :    0.325260

-------------------------------
LOEWDIN REDUCED ORBITAL CHARGES
-------------------------------
  0 O s       :     3.641178  s :     3.641178
      pz      :     1.337463  p :     4.971208
      px      :     1.997666
      py      :     1.636079
      dz2     :     0.001005  d :     0.038133
      dxz     :     0.000000
      dyz     :     0.028107
      dx2y2   :     0.006687
      dxy     :     0.002334
  1 H s       :     0.674740  s :     0.674740
  2 H s       :     0.674740  s :     0.674740


                      *****************************
                      * MAYER POPULATION ANALYSIS *
                      *****************************

  NA   - Mulliken gross atomic population
  ZA   - Total nuclear charge
  QA   - Mulliken gross atomic charge
  VA   - Mayer's total valence
  BVA  - Mayer's bonded valence
  FA   - Mayer's free valence

  ATOM       NA         ZA         QA         VA         BVA        FA
  0 O      8.8916     8.0000    -0.8916     1.5456     1.5456    -0.0000
  1 H      0.5542     1.0000     0.4458     0.7675     0.7675    -0.0000
  2 H      0.5542     1.0000     0.4458     0.7675     0.7675     0.0000

  Mayer bond orders larger than 0.1
B(  0-O ,  1-H ) :   0.7728 B(  0-O ,  2-H ) :   0.7728 

-------
TIMINGS
-------

Total SCF time: 0 days 0 hours 0 min 1 sec 

Total time                  ....       1.374 sec
Sum of individual times     ....       1.370 sec  ( 99.7%)

Fock matrix formation       ....       1.243 sec  ( 90.5%)
Diagonalization             ....       0.001 sec  (  0.1%)
Density matrix formation    ....       0.000 sec  (  0.0%)
Population analysis         ....       0.000 sec  (  0.0%)
Initial guess               ....       0.110 sec  (  8.0%)
Orbital Transformation      ....       0.000 sec  (  0.0%)
Orbital Orthonormalization  ....       0.000 sec  (  0.0%)
DIIS solution               ....       0.001 sec  (  0.0%)
SOSCF solution              ....       0.003 sec  (  0.2%)


------------------------------------------------------------------------------- 
                              ORCA-MATRIX DRIVEN CI                            
------------------------------------------------------------------------------- 

--------------------------------
AUTOMATIC CHOICE OF INCORE LEVEL
--------------------------------

Memory available                           ...    256.00 MB
Memory needed for S+T                      ...      0.04 MB
Memory needed for J+K                      ...      0.08 MB
Memory needed for DIIS                     ...      0.54 MB
Memory needed for 3-ext                    ...      0.07 MB
Memory needed for 4-ext                    ...      0.12 MB
Memory needed for triples                  ...      0.00 MB
 -> Final InCoreLevel    ... 5

Wavefunction type
-----------------
Correlation treatment                      ...      CCSD     
Single excitations                         ... ON
Orbital optimization                       ... OFF
Calculation of Z vector                    ... OFF
Calculation of Brueckner orbitals          ... OFF
Perturbative triple excitations            ... OFF
Calculation of F12 correction              ... OFF
Frozen core treatment                      ... chemical core (2 el)
Reference Wavefunction                     ... RHF
  Internal Orbitals:     1 ...    4 (  4 MO's/  8 electrons)
  Virtual  Orbitals:     5 ...   17 ( 13 MO's              )
Number of AO's                             ...     18
Number of electrons                        ...     10
Number of correlated electrons             ...      8

Algorithmic settings
--------------------
Integral transformation                    ... AO direct full transformation
K(C) Formation                             ... FULL-MO TRAFO
Maximum number of iterations               ...        50
Convergence tolerance (max. residuum)      ... 2.500e-05
Level shift for amplitude update           ... 2.000e-01
Maximum number of DIIS vectors             ...         7
DIIS turned on at iteration                ...         0
Damping before turning on DIIS             ...     0.500
Damping after turning on DIIS              ...     0.000
Pair specific amplitude update             ... OFF
Natural orbital iterations                 ... OFF
Perturbative natural orbital generation    ... OFF
Printlevel                                 ... 2

Memory handling:
----------------
Maximum memory for working arrays          ...    256 MB
Data storage in matrix containers          ... UNCOMPRESSED
Data type for integral storage             ... DOUBLE
In-Core Storage of quantities:
   Amplitudes+Sigma Vector      ... YES
   J+K operators                ... YES
   DIIS vectors                 ... YES
   3-external integrals         ... YES
   4-external integrals         ... YES


Initializing the integral package          ... done

--------------------------
CLOSED-SHELL FOCK OPERATOR
--------------------------

<ss|ss>:          406 b            0 skpd (  0.0%)    0.001 s ( 0.001 ms/b)
<ss|sp>:          392 b            0 skpd (  0.0%)    0.001 s ( 0.003 ms/b)
<ss|sd>:          196 b            0 skpd (  0.0%)    0.000 s ( 0.002 ms/b)
<ss|pp>:           84 b            0 skpd (  0.0%)    0.000 s ( 0.003 ms/b)
<ss|pd>:           56 b            0 skpd (  0.0%)    0.000 s ( 0.002 ms/b)
<ss|dd>:           28 b            0 skpd (  0.0%)    0.000 s ( 0.004 ms/b)
<sp|sp>:          105 b            0 skpd (  0.0%)    0.000 s ( 0.004 ms/b)
<sp|sd>:           98 b            0 skpd (  0.0%)    0.000 s ( 0.002 ms/b)
<sp|pp>:           42 b            0 skpd (  0.0%)    0.000 s ( 0.005 ms/b)
<sp|pd>:           28 b            0 skpd (  0.0%)    0.000 s ( 0.004 ms/b)
<sp|dd>:           14 b            0 skpd (  0.0%)    0.000 s ( 0.004 ms/b)
<sd|sd>:           28 b            0 skpd (  0.0%)    0.000 s ( 0.003 ms/b)
<sd|pp>:           21 b            0 skpd (  0.0%)    0.000 s ( 0.005 ms/b)
<sd|pd>:           14 b            0 skpd (  0.0%)    0.000 s ( 0.006 ms/b)
<sd|dd>:            7 b            0 skpd (  0.0%)    0.000 s ( 0.009 ms/b)
<pp|pp>:            6 b            0 skpd (  0.0%)    0.000 s ( 0.010 ms/b)
<pp|pd>:            6 b            0 skpd (  0.0%)    0.000 s ( 0.010 ms/b)
<pp|dd>:            3 b            0 skpd (  0.0%)    0.000 s ( 0.011 ms/b)
<pd|pd>:            3 b            0 skpd (  0.0%)    0.000 s ( 0.021 ms/b)
<pd|dd>:            2 b            0 skpd (  0.0%)    0.000 s ( 0.040 ms/b)
<dd|dd>:            1 b            0 skpd (  0.0%)    0.000 s ( 0.120 ms/b)
Time needed for Fock operator              ...            0.059 sec
Reference energy                           ...    -76.008350419

------------------------------
PARTIAL COULOMB TRANSFORMATION
------------------------------

Transformation type                        ... one-operator
Dimension of the basis                     ...   18
Number of internal MOs                     ...   17 (1-17)
Pair cutoff                                ... 0.000e+00 Eh
Number of AO pairs included in the trafo   ...  171
Total Number of distinct AO pairs          ...  171
Memory devoted for trafo                   ...  256.0 MB 
Max. Number of MO pairs treated together   ... 196224      
Max. Number of MOs treated per batch       ... 10901      
Number Format for Storage                  ... Double (8 Byte)
AO-integral source                         ... DIRECT
Integral package used                      ... LIBINT

Starting integral evaluation:
<ss|**>:         1540 b        0 skpd     0.003 s (  0.002 ms/b)
<sp|**>:          770 b        0 skpd     0.003 s (  0.003 ms/b)
<sd|**>:          385 b        0 skpd     0.001 s (  0.003 ms/b)
<pp|**>:          165 b        0 skpd     0.001 s (  0.005 ms/b)
<pd|**>:          110 b        0 skpd     0.001 s (  0.006 ms/b)
<dd|**>:           55 b        0 skpd     0.000 s (  0.006 ms/b)
Closing buffer AOJ ( 0.00 GB; CompressionRatio= 0.99)
Collecting buffer AOJ 
    ... done with AO integral generation
Number of MO pairs included in the trafo   ...  153
    ... Now sorting integrals
IBATCH = 1 of  1
Closing buffer JAO ( 0.00 GB; CompressionRatio= 0.99)
Collecting buffer JAO 
TOTAL TIME for half transformation         ...     0.010 sec
AO-integral generation                     ...     0.008 sec
Half transformation                        ...     0.002 sec
J-integral sorting                         ...     0.001 sec

-------------------------- SECOND HALF TRANSFORMATION -------------------------
Formation of (pq|rs)                       ... ok (     0.001 sec)
Integral sorting                           ... ok (     0.001 sec)

------------------
CLOSED SHELL GUESS
------------------

Initial guess performed in     0.000 sec
E(0)                                       ...    -76.008350419
E(MP2)                                     ...     -0.185442121
Initial E(tot)                             ...    -76.193792541
<T|T>                                      ...      0.049462633
Number of pairs included                   ... 10
Total number of pairs                      ... 10

------------------------------------------------
                  RHF COUPLED CLUSTER ITERATIONS
------------------------------------------------

Number of amplitudes to be optimized       ... 1742

Iter       E(tot)           E(Corr)          Delta-E          Residual     Time
  0    -76.193792541     -0.185442121      0.000000000      0.012084358    0.01
                           *** Turning on DIIS ***
  1    -76.198445369     -0.190094949     -0.004652828      0.005654903    0.01
  2    -76.202249624     -0.193899205     -0.003804256      0.001473749    0.01
  3    -76.202950972     -0.194600553     -0.000701348      0.000417908    0.01
  4    -76.203019693     -0.194669274     -0.000068721      0.000180216    0.01
  5    -76.203024811     -0.194674392     -0.000005118      0.000085542    0.01
  6    -76.203026033     -0.194675613     -0.000001221      0.000033823    0.01
  7    -76.203026368     -0.194675949     -0.000000335      0.000008633    0.01
               --- The Coupled-Cluster iterations have converged ---

----------------------
COUPLED CLUSTER ENERGY
----------------------

E(0)                                       ...    -76.008350419
E(CORR)                                    ...     -0.194675949
E(TOT)                                     ...    -76.203026368
Singles Norm <S|S>**1/2                    ...      0.016403546
T1 diagnostic                              ...      0.005799529

------------------
LARGEST AMPLITUDES
------------------
   4->  9   4->  9       0.052362
   3-> 10   3-> 10       0.041366
   2->  6   2->  6       0.040586
   4->  9   3-> 10       0.031769
   2->  7   2->  7       0.028224
   2-> 11   2-> 11       0.028066
   4->  9   2-> 11       0.026443
   2->  6   2-> 11       0.026088
   2-> 11   2->  6       0.026088
   2->  8   2->  8       0.026081
   4->  9   2->  6       0.024519
   3-> 13   3-> 13       0.022535
   3->  5   3->  5       0.022159
   3-> 10   2-> 11       0.021496
   3->  7   3->  7       0.021376
   3->  5   2->  6       0.021084


        !!!!!!!!!!!!!!!!!!!!!!!!!!!!!!!!!!!!!!!!!!!!!!!!!!!!!!!!!!!!!!!!!!!!!!!!!! 
        !  Warning: Densities are linearized densities !                         !
        !!!!!!!!!!!!!!!!!!!!!!!!!!!!!!!!!!!!!!!!!!!!!!!!!!!!!!!!!!!!!!!!!!!!!!!!!! 

Trace of internal density part =     -0.113259171
Trace of external density part =      0.113259171
NORM  =      1.056898662 sqrt=     1.028055768
W(HF) =      0.946164506
------------------------------------------------------------------------------
                           ORCA POPULATION ANALYSIS
------------------------------------------------------------------------------
Input electron density              ... /scratch/kmoore/ORCASCR_1548041040675800151/input.mdcip.tmp
BaseName (.gbw .S,...)              ... /scratch/kmoore/ORCASCR_1548041040675800151/input

                    ********************************
                    * MULLIKEN POPULATION ANALYSIS *
                    ********************************

-----------------------
MULLIKEN ATOMIC CHARGES
-----------------------
   0 O :   -0.833090
   1 H :    0.416545
   2 H :    0.416545
Sum of atomic charges:   -0.0000000

--------------------------------
MULLIKEN REDUCED ORBITAL CHARGES
--------------------------------
  0 O s       :     3.885605  s :     3.885605
      pz      :     1.307790  p :     4.894652
      px      :     1.987034
      py      :     1.599829
      dz2     :     0.004848  d :     0.052832
      dxz     :     0.005054
      dyz     :     0.024532
      dx2y2   :     0.011110
      dxy     :     0.007289
  1 H s       :     0.583455  s :     0.583455
  2 H s       :     0.583455  s :     0.583455


                     *******************************
                     * LOEWDIN POPULATION ANALYSIS *
                     *******************************

----------------------
LOEWDIN ATOMIC CHARGES
----------------------
   0 O :   -0.629814
   1 H :    0.314907
   2 H :    0.314907

-------------------------------
LOEWDIN REDUCED ORBITAL CHARGES
-------------------------------
  0 O s       :     3.638449  s :     3.638449
      pz      :     1.325218  p :     4.929123
      px      :     1.987034
      py      :     1.616871
      dz2     :     0.006136  d :     0.062242
      dxz     :     0.005054
      dyz     :     0.032233
      dx2y2   :     0.011530
      dxy     :     0.007289
  1 H s       :     0.685093  s :     0.685093
  2 H s       :     0.685093  s :     0.685093


                      *****************************
                      * MAYER POPULATION ANALYSIS *
                      *****************************

  NA   - Mulliken gross atomic population
  ZA   - Total nuclear charge
  QA   - Mulliken gross atomic charge
  VA   - Mayer's total valence
  BVA  - Mayer's bonded valence
  FA   - Mayer's free valence

  ATOM       NA         ZA         QA         VA         BVA        FA
  0 O      8.8331     8.0000    -0.8331     1.8607     1.5064     0.3543
  1 H      0.5835     1.0000     0.4165     0.7923     0.7467     0.0456
  2 H      0.5835     1.0000     0.4165     0.7923     0.7467     0.0456

  Mayer bond orders larger than 0.1
B(  0-O ,  1-H ) :   0.7532 B(  0-O ,  2-H ) :   0.7532 



------------------------------------------------------------------------------- 
                                     TIMINGS                                   
------------------------------------------------------------------------------- 


Total execution time                   ...        1.941 sec

Fock Matrix Formation                  ...        0.059 sec (  3.1%)
Initial Guess                          ...        0.000 sec (  0.0%)
DIIS Solver                            ...        0.001 sec (  0.0%)
State Vector Update                    ...        0.000 sec (  0.0%)
Sigma-vector construction              ...        0.045 sec (  2.3%)
  <D|H|D>(2-ext)                       ...        0.003 sec (  6.3% of sigma)
  <D|H|D>(4-ext)                       ...        0.001 sec (  2.3% of sigma)
  <S|H|D>(3-ext)                       ...        0.001 sec (  2.4% of sigma)
  Fock-dressing                        ...        0.033 sec ( 73.8% of sigma)
  (ij|ab),(ia|jb)-dressing             ...        0.003 sec (  6.4% of sigma)


-------------------------   --------------------
FINAL SINGLE POINT ENERGY       -76.203026367926
-------------------------   --------------------


                            ***************************************
                            *     ORCA property calculations      *
                            ***************************************

                                    ---------------------
                                    Active property flags
                                    ---------------------
   (+) Dipole Moment


------------------------------------------------------------------------------
                       ORCA ELECTRIC PROPERTIES CALCULATION
------------------------------------------------------------------------------

Dipole Moment Calculation                       ... on
Quadrupole Moment Calculation                   ... off
Polarizability Calculation                      ... off
GBWName                                         ... /scratch/kmoore/ORCASCR_1548041040675800151/input.gbw
Electron density file                           ... /scratch/kmoore/ORCASCR_1548041040675800151/input.scfp.tmp
The origin for moment calculation is the CENTER OF MASS  = ( 0.000000,  0.028522  0.000000)

-------------
DIPOLE MOMENT
-------------
                                X             Y             Z
Electronic contribution:     -0.00000      -0.11944      -0.00000
Nuclear contribution   :      0.00000       1.01329       0.00000
                        -----------------------------------------
Total Dipole Moment    :     -0.00000       0.89385      -0.00000
                        -----------------------------------------
Magnitude (a.u.)       :      0.89385
Magnitude (Debye)      :      2.27199


                           *** MDCI DENSITY ***

------------------------------------------------------------------------------
                       ORCA ELECTRIC PROPERTIES CALCULATION
------------------------------------------------------------------------------

Dipole Moment Calculation                       ... on
Quadrupole Moment Calculation                   ... off
Polarizability Calculation                      ... off
GBWName                                         ... /scratch/kmoore/ORCASCR_1548041040675800151/input.gbw
Electron density file                           ... /scratch/kmoore/ORCASCR_1548041040675800151/input.mdcip.tmp
The origin for moment calculation is the CENTER OF MASS  = ( 0.000000,  0.028522  0.000000)

-------------
DIPOLE MOMENT
-------------
                                X             Y             Z
Electronic contribution:     -0.00000      -0.14743      -0.00000
Nuclear contribution   :      0.00000       1.01329       0.00000
                        -----------------------------------------
Total Dipole Moment    :     -0.00000       0.86586      -0.00000
                        -----------------------------------------
Magnitude (a.u.)       :      0.86586
Magnitude (Debye)      :      2.20084


Timings for individual modules:

Sum of individual times         ...        5.287 sec (=   0.088 min)
GTO integral calculation        ...        0.296 sec (=   0.005 min)   5.6 %
SCF iterations                  ...        1.406 sec (=   0.023 min)  26.6 %
MDCI module                     ...        3.584 sec (=   0.060 min)  67.8 %
                             ****ORCA TERMINATED NORMALLY****
TOTAL RUN TIME: 0 days 0 hours 0 minutes 5 seconds 507 msec
