
    -----------------------------------------------------------------------
          Psi4: An Open-Source Ab Initio Electronic Structure Package
                               Psi4 1.2.1 release

                         Git: Rev {HEAD} 406f4de 


    R. M. Parrish, L. A. Burns, D. G. A. Smith, A. C. Simmonett,
    A. E. DePrince III, E. G. Hohenstein, U. Bozkaya, A. Yu. Sokolov,
    R. Di Remigio, R. M. Richard, J. F. Gonthier, A. M. James,
    H. R. McAlexander, A. Kumar, M. Saitow, X. Wang, B. P. Pritchard,
    P. Verma, H. F. Schaefer III, K. Patkowski, R. A. King, E. F. Valeev,
    F. A. Evangelista, J. M. Turney, T. D. Crawford, and C. D. Sherrill,
    J. Chem. Theory Comput. 13(7) pp 3185--3197 (2017).
    (doi: 10.1021/acs.jctc.7b00174)


                         Additional Contributions by
    P. Kraus, H. Kruse, M. H. Lechner, M. C. Schieber, and R. A. Shaw

    -----------------------------------------------------------------------


    Psi4 started on: Tuesday, 15 January 2019 11:43AM

    Process ID: 89358
    Host:       blogin3
    PSIDATADIR: /home/kmoore/miniconda/envs/esenv/share/psi4
    Memory:     500.0 MiB
    Threads:    1
    
  ==> Input File <==

--------------------------------------------------------------------------
# Psi4 1.0 Computation 

molecule {
 0 1
 O          0.0000000000       -0.0530229169        0.0000000000
 H          0.0000000000        0.5556614584       -0.7504910643
 H          0.0000000000        0.5556614584        0.7504910643
 units angstrom
}

set reference rhf
set scf_type pk
set basis 6-31G*

energy('scf')

--------------------------------------------------------------------------

*** tstart() called on blogin3
*** at Tue Jan 15 11:43:39 2019

   => Loading Basis Set <=

    Name: 6-31G*
    Role: ORBITAL
    Keyword: BASIS
    atoms 1   entry O          line   145 file /home/kmoore/miniconda/envs/esenv/share/psi4/basis/6-31gs.gbs 
    atoms 2-3 entry H          line    44 file /home/kmoore/miniconda/envs/esenv/share/psi4/basis/6-31gs.gbs 


         ---------------------------------------------------------
                                   SCF
            by Justin Turney, Rob Parrish, Andy Simmonett
                             and Daniel Smith
                              RHF Reference
                        1 Threads,    500 MiB Core
         ---------------------------------------------------------

  ==> Geometry <==

    Molecular point group: c2v
    Full point group: C2v

    Geometry (in Angstrom), charge = 0, multiplicity = 1:

       Center              X                  Y                   Z               Mass       
    ------------   -----------------  -----------------  -----------------  -----------------
         O            0.000000000000     0.000000000000    -0.068120834725    15.994914619560
         H           -0.000000000000     0.750491064300     0.540563540575     1.007825032070
         H            0.000000000000    -0.750491064300     0.540563540575     1.007825032070

  Running in c2v symmetry.

  Rotational constants: A =     25.41806  B =     14.84876  C =      9.37315 [cm^-1]
  Rotational constants: A = 762014.35919  B = 445154.74598  C = 280999.82600 [MHz]
  Nuclear repulsion =    9.114682954848963

  Charge       = 0
  Multiplicity = 1
  Electrons    = 10
  Nalpha       = 5
  Nbeta        = 5

  ==> Algorithm <==

  SCF Algorithm Type is PK.
  DIIS enabled.
  MOM disabled.
  Fractional occupation disabled.
  Guess Type is SAD.
  Energy threshold   = 1.00e-06
  Density threshold  = 1.00e-06
  Integral threshold = 0.00e+00

  ==> Primary Basis <==

  Basis Set: 6-31G*
    Blend: 6-31G*
    Number of shells: 10
    Number of basis function: 19
    Number of Cartesian functions: 19
    Spherical Harmonics?: false
    Max angular momentum: 2

  ==> Pre-Iterations <==

   -------------------------------------------------------
    Irrep   Nso     Nmo     Nalpha   Nbeta   Ndocc  Nsocc
   -------------------------------------------------------
     A1        10      10       0       0       0       0
     A2         1       1       0       0       0       0
     B1         3       3       0       0       0       0
     B2         5       5       0       0       0       0
   -------------------------------------------------------
    Total      19      19       5       5       5       0
   -------------------------------------------------------

  ==> Integral Setup <==

  Using in-core PK algorithm.
   Calculation information:
      Number of atoms:                   3
      Number of AO shells:              10
      Number of primitives:             23
      Number of atomic orbitals:        19
      Number of basis functions:        19

      Integral cutoff                 1.00e-12
      Number of threads:                 1

  Performing in-core PK
  Using 36290 doubles for integral storage.
  We computed 1540 shell quartets total.
  Whereas there are 1540 unique shell quartets.

  ==> DiskJK: Disk-Based J/K Matrices <==

    J tasked:                  Yes
    K tasked:                  Yes
    wK tasked:                  No
    Memory (MB):               375
    Schwarz Cutoff:          1E-12

    OpenMP threads:              1

  Minimum eigenvalue in the overlap matrix is 2.2607421967E-02.
  Using Symmetric Orthogonalization.

  SCF Guess: Superposition of Atomic Densities via on-the-fly atomic UHF.

  ==> Iterations <==

                        Total Energy        Delta E     RMS |[F,P]|

   @RHF iter   0:   -75.91261869086692   -7.59126e+01   1.42930e-01 
   @RHF iter   1:   -75.97245904420963   -5.98404e-02   2.49120e-02 
   @RHF iter   2:   -76.00147946165309   -2.90204e-02   1.29762e-02 DIIS
   @RHF iter   3:   -76.00931816810825   -7.83871e-03   1.92384e-03 DIIS
   @RHF iter   4:   -76.00969933005082   -3.81162e-04   5.25909e-04 DIIS
   @RHF iter   5:   -76.00974461091913   -4.52809e-05   1.13726e-04 DIIS
   @RHF iter   6:   -76.00974720849739   -2.59758e-06   1.64023e-05 DIIS
   @RHF iter   7:   -76.00974725401169   -4.55143e-08   2.80244e-06 DIIS
   @RHF iter   8:   -76.00974725524665   -1.23497e-09   3.92977e-07 DIIS

  ==> Post-Iterations <==

    Orbital Energies [Eh]
    ---------------------

    Doubly Occupied:                                                      

       1A1   -20.563638     2A1    -1.339399     1B2    -0.697137  
       3A1    -0.574732     1B1    -0.498367  

    Virtual:                                                              

       4A1     0.208352     2B2     0.301370     3B2     1.007332  
       5A1     1.131407     2B1     1.167057     6A1     1.170702  
       4B2     1.375632     7A1     1.443864     8A1     2.015007  
       1A2     2.037963     3B1     2.066297     9A1     2.610630  
       5B2     2.926503    10A1     3.960833  

    Final Occupation by Irrep:
             A1    A2    B1    B2 
    DOCC [     3,    0,    1,    1 ]

  Energy converged.

  @RHF Final Energy:   -76.00974725524665

   => Energetics <=

    Nuclear Repulsion Energy =              9.1146829548489627
    One-Electron Energy =                -122.9023154239318956
    Two-Electron Energy =                  37.7778852138362780
    Total Energy =                        -76.0097472552466513



Properties will be evaluated at   0.000000,   0.000000,   0.000000 [a0]

Properties computed using the SCF density matrix

  Nuclear Dipole Moment: [e a0]
     X:     0.0000      Y:     0.0000      Z:     1.0132

  Electronic Dipole Moment: [e a0]
     X:     0.0000      Y:     0.0000      Z:    -0.1171

  Dipole Moment: [e a0]
     X:     0.0000      Y:     0.0000      Z:     0.8961     Total:     0.8961

  Dipole Moment: [D]
     X:     0.0000      Y:     0.0000      Z:     2.2776     Total:     2.2776


*** tstop() called on blogin3 at Tue Jan 15 11:43:40 2019
Module time:
	user time   =       0.40 seconds =       0.01 minutes
	system time =       0.01 seconds =       0.00 minutes
	total time  =          1 seconds =       0.02 minutes
Total time:
	user time   =       0.40 seconds =       0.01 minutes
	system time =       0.01 seconds =       0.00 minutes
	total time  =          1 seconds =       0.02 minutes

    Psi4 stopped on: Tuesday, 15 January 2019 11:43AM
    Psi4 wall time for execution: 0:00:00.43

*** Psi4 exiting successfully. Buy a developer a beer!
