
                                 *****************
                                 * O   R   C   A *
                                 *****************

           --- An Ab Initio, DFT and Semiempirical electronic structure package ---

                  #######################################################
                  #                        -***-                        #
                  #  Department of molecular theory and spectroscopy    #
                  #              Directorship: Frank Neese              #
                  # Max Planck Institute for Chemical Energy Conversion #
                  #                  D-45470 Muelheim/Ruhr              #
                  #                       Germany                       #
                  #                                                     #
                  #                  All rights reserved                #
                  #                        -***-                        #
                  #######################################################


                         Program Version 4.0.1.2 - RELEASE -


 With contributions from (in alphabetic order):
   Daniel Aravena         : Magnetic Properties
   Michael Atanasov       : Ab Initio Ligand Field Theory
   Ute Becker             : Parallelization
   Martin Brehm           : Molecular dynamics
   Dmytro Bykov           : SCF Hessian
   Vijay G. Chilkuri      : MRCI spin determinant printing
   Dipayan Datta          : RHF DLPNO-CCSD density
   Achintya Kumar Dutta   : EOM-CC, STEOM-CC
   Dmitry Ganyushin       : Spin-Orbit,Spin-Spin,Magnetic field MRCI
   Yang Guo               : DLPNO-NEVPT2, CIM, IAO-localization
   Andreas Hansen         : Spin unrestricted coupled pair/coupled cluster methods
   Lee Huntington         : MR-EOM, pCC
   Robert Izsak           : Overlap fitted RIJCOSX, COSX-SCS-MP3, EOM
   Christian Kollmar      : KDIIS, OOCD, Brueckner-CCSD(T), CCSD density
   Simone Kossmann        : Meta GGA functionals, TD-DFT gradient, OOMP2, MP2 Hessian
   Martin Krupicka        : AUTO-CI
   Dagmar Lenk            : GEPOL surface
   Dimitrios Liakos       : Extrapolation schemes; parallel MDCI
   Dimitrios Manganas     : ROCIS; embedding schemes
   Dimitrios Pantazis     : SARC Basis sets
   Taras Petrenko         : DFT Hessian,TD-DFT gradient, ASA, ECA, R-Raman, ABS, FL, XAS/XES, NRVS
   Peter Pinski           : DLPNO-MP2
   Christoph Reimann      : Effective Core Potentials
   Marius Retegan         : Local ZFS, SOC
   Christoph Riplinger    : Optimizer, TS searches, QM/MM, DLPNO-CCSD(T), (RO)-DLPNO pert. Triples
   Tobias Risthaus        : Range-separated hybrids, TD-DFT gradient, RPA, STAB
   Michael Roemelt        : Restricted open shell CIS
   Masaaki Saitow         : Open-shell DLPNO
   Barbara Sandhoefer     : DKH picture change effects
   Kantharuban Sivalingam : CASSCF convergence, NEVPT2, FIC-MRCI
   Georgi Stoychev        : AutoAux
   Boris Wezisla          : Elementary symmetry handling
   Frank Wennmohs         : Technical directorship


 We gratefully acknowledge several colleagues who have allowed us to
 interface, adapt or use parts of their codes:
   Stefan Grimme, W. Hujo, H. Kruse,             : VdW corrections, initial TS optimization,
                  C. Bannwarth                     DFT functionals, gCP, sTDA/sTD-DF
   Ed Valeev                                     : LibInt (2-el integral package), F12 methods
   Garnet Chan, S. Sharma, J. Yang, R. Olivares  : DMRG
   Ulf Ekstrom                                   : XCFun DFT Library
   Mihaly Kallay                                 : mrcc  (arbitrary order and MRCC methods)
   Andreas Klamt, Michael Diedenhofen            : otool_cosmo (COSMO solvation model)
   Jiri Pittner, Ondrej Demel                    : Mk-CCSD
   Frank Weinhold                                : gennbo (NPA and NBO analysis)
   Christopher J. Cramer and Donald G. Truhlar   : smd solvation model


 Your calculation uses the libint2 library for the computation of 2-el integrals
 For citations please refer to: http://libint.valeyev.net

 This ORCA versions uses:
   CBLAS   interface :  Fast vector & matrix operations
   LAPACKE interface :  Fast linear algebra routines
   SCALAPACK package :  Parallel linear algebra routines


Your calculation utilizes the basis: cc-pVDZ 
       H, B-Ne : Obtained from the ccRepo (grant-hill.group.shef.ac.uk/ccrepo) Feb. 2017
                 T. H. Dunning, Jr., J. Chem. Phys. 90, 1007 (1989)
            He : Obtained from the ccRepo (grant-hill.group.shef.ac.uk/ccrepo) Feb. 2017
                 D. E. Woon, T. H. Dunning, Jr., J. Chem. Phys. 100, 2975 (1994)
  Li-Be, Na-Mg : Obtained from the ccRepo (grant-hill.group.shef.ac.uk/ccrepo) Feb. 2017
                 B. P. Prascher, D. E. Woon, K. A. Peterson, T. H. Dunning, Jr., A. K. Wilson, Theor. Chem. Acc. 128, 69 (2011)
         Al-Ar : Obtained from the ccRepo (grant-hill.group.shef.ac.uk/ccrepo) Feb. 2017
                 D. E. Woon, T. H. Dunning, Jr., J. Chem. Phys. 98, 1358 (1993)
            Ca : Obtained from the Peterson Research Group Website (tyr0.chem.wsu.edu/~kipeters) Feb. 2017
                 J. Koput, K. A. Peterson, J. Phys. Chem. 106, 9595 (2002)
         Sc-Zn : Obtained from the ccRepo (grant-hill.group.shef.ac.uk/ccrepo) Feb. 2017
                 N. B. Balabanov, K. A. Peterson, J. Chem. Phys. 123, 064107 (2005)
                 N. B. Balabanov, K. A. Peterson, J. Chem. Phys. 125, 074110 (2006)
         Ga-Kr : Obtained from the ccRepo (grant-hill.group.shef.ac.uk/ccrepo) Feb. 2017
                 A. K. Wilson, D. E. Woon, K. A. Peterson, T. H. Dunning, Jr., J. Chem. Phys. 110, 7667 (1999)

================================================================================
                                        WARNINGS
                       Please study these warnings very carefully!
================================================================================

Warning: TCutStore was < 0. Adjusted to Thresh (uncritical)

INFO   : the flag for use of LIBINT has been found!

================================================================================
                                       INPUT FILE
================================================================================
NAME = /scratch/kmoore/ORCASCR_1548617078250505654/input.dat
|  1> # Orca 4.0 Computation 
|  2> 
|  3> ! ROHF 
|  4> ! cc-pVDZ 
|  5> 
|  6> * xyz 0 2
|  7>  O       0.000000    0.000000    0.000000
|  8>  O       0.000000    0.000000    1.311565
|  9>  H       0.943625    0.000000    1.573176
| 10> *
| 11> 
| 12> 
| 13>                          ****END OF INPUT****
================================================================================

                       ****************************
                       * Single Point Calculation *
                       ****************************

---------------------------------
CARTESIAN COORDINATES (ANGSTROEM)
---------------------------------
  O      0.000000    0.000000    0.000000
  O      0.000000    0.000000    1.311565
  H      0.943625    0.000000    1.573176

----------------------------
CARTESIAN COORDINATES (A.U.)
----------------------------
  NO LB      ZA    FRAG     MASS         X           Y           Z
   0 O     8.0000    0    15.999    0.000000    0.000000    0.000000
   1 O     8.0000    0    15.999    0.000000    0.000000    2.478499
   2 H     1.0000    0     1.008    1.783193    0.000000    2.972872

--------------------------------
INTERNAL COORDINATES (ANGSTROEM)
--------------------------------
 O      0   0   0     0.000000000000     0.00000000     0.00000000
 O      1   0   0     1.311565000000     0.00000000     0.00000000
 H      2   1   0     0.979218288200   105.49552466     0.00000000

---------------------------
INTERNAL COORDINATES (A.U.)
---------------------------
 O      0   0   0     0.000000000000     0.00000000     0.00000000
 O      1   0   0     2.478498656836     0.00000000     0.00000000
 H      2   1   0     1.850454390026   105.49552466     0.00000000

---------------------
BASIS SET INFORMATION
---------------------
There are 2 groups of distinct atoms

 Group   1 Type O   : 17s4p1d contracted to 3s2p1d pattern {881/31/1}
 Group   2 Type H   : 4s1p contracted to 2s1p pattern {31/1}

Atom   0O    basis set group =>   1
Atom   1O    basis set group =>   1
Atom   2H    basis set group =>   2
------------------------------------------------------------------------------
                           ORCA GTO INTEGRAL CALCULATION
------------------------------------------------------------------------------

                         BASIS SET STATISTICS AND STARTUP INFO

 # of primitive gaussian shells          ...   49
 # of primitive gaussian functions       ...   75
 # of contracted shells                  ...   15
 # of contracted basis functions         ...   33
 Highest angular momentum                ...    2
 Maximum contraction depth               ...    8
 Integral package used                   ... LIBINT
 Integral threshhold            Thresh   ...  1.000e-10
 Primitive cut-off              TCut     ...  1.000e-11


------------------------------ INTEGRAL EVALUATION ----------------------------


 * One electron integrals 
 Pre-screening matrix                    ... done
 Shell pair data                         ... done (   0.000 sec)

-------------------------------------------------------------------------------
                                 ORCA SCF
-------------------------------------------------------------------------------

------------
SCF SETTINGS
------------
Hamiltonian:
 Ab initio Hamiltonian  Method          .... Hartree-Fock(GTOs)


General Settings:
 Integral files         IntName         .... /scratch/kmoore/ORCASCR_1548617078250505654/input
 Hartree-Fock type      HFTyp           .... ROHF
 Total Charge           Charge          ....    0
 Multiplicity           Mult            ....    2
 Number of Electrons    NEL             ....   17
 Basis Dimension        Dim             ....   33
 Nuclear Repulsion      ENuc            ....     32.4530418645 Eh

Convergence Acceleration:
 DIIS                   CNVDIIS         .... on
   Start iteration      DIISMaxIt       ....    12
   Startup error        DIISStart       ....  0.200000
   # of expansion vecs  DIISMaxEq       ....     5
   Bias factor          DIISBfac        ....   1.050
   Max. coefficient     DIISMaxC        ....  10.000
 Newton-Raphson         CNVNR           .... off
 SOSCF                  CNVSOSCF        .... off
 Level Shifting         CNVShift        .... on
   Level shift para.    LevelShift      ....    0.2500
   Turn off err/grad.   ShiftErr        ....    0.0010
 Zerner damping         CNVZerner       .... off
 Static damping         CNVDamp         .... on
   Fraction old density DampFac         ....    0.7000
   Max. Damping (<1)    DampMax         ....    0.9800
   Min. Damping (>=0)   DampMin         ....    0.0000
   Turn off err/grad.   DampErr         ....    0.1000
 Fernandez-Rico         CNVRico         .... off

SCF Procedure:
 Maximum # iterations   MaxIter         ....   125
 SCF integral mode      SCFMode         .... Direct
   Integral package                     .... LIBINT
 Reset frequeny         DirectResetFreq ....    20
 Integral Threshold     Thresh          ....  1.000e-10 Eh
 Primitive CutOff       TCut            ....  1.000e-11 Eh

Convergence Tolerance:
 Convergence Check Mode ConvCheckMode   .... Total+1el-Energy
 Convergence forced     ConvForced      .... 0
 Energy Change          TolE            ....  1.000e-06 Eh
 1-El. energy change                    ....  1.000e-03 Eh
 DIIS Error             TolErr          ....  1.000e-06


Diagonalization of the overlap matrix:
Smallest eigenvalue                        ... 2.183e-02
Time for diagonalization                   ...    0.001 sec
Threshold for overlap eigenvalues          ... 1.000e-08
Number of eigenvalues below threshold      ... 0
Time for construction of square roots      ...    0.000 sec
Total time needed                          ...    0.001 sec

-------------------
DFT GRID GENERATION
-------------------

General Integration Accuracy     IntAcc      ...  4.340
Radial Grid Type                 RadialGrid  ... Gauss-Chebyshev
Angular Grid (max. acc.)         AngularGrid ... Lebedev-110
Angular grid pruning method      GridPruning ... 3 (G Style)
Weight generation scheme         WeightScheme... Becke
Basis function cutoff            BFCut       ...    1.0000e-10
Integration weight cutoff        WCut        ...    1.0000e-14
Grids for H and He will be reduced by one unit

# of grid points (after initial pruning)     ...   4226 (   0.0 sec)
# of grid points (after weights+screening)   ...   4196 (   0.0 sec)
nearest neighbour list constructed           ...    0.0 sec
Grid point re-assignment to atoms done       ...    0.0 sec
Grid point division into batches done        ...    0.0 sec
Reduced shell lists constructed in    0.0 sec

Total number of grid points                  ...     4196
Total number of batches                      ...       67
Average number of points per batch           ...       62
Average number of grid points per atom       ...     1399
Average number of shells per batch           ...    13.62 (90.78%)
Average number of basis functions per batch  ...    29.76 (90.20%)
Average number of large shells per batch     ...    12.68 (93.09%)
Average number of large basis fcns per batch ...    27.71 (93.08%)
Maximum spatial batch extension              ...  19.26, 36.28, 17.58 au
Average spatial batch extension              ...   4.61,  5.70,  4.97 au

Time for grid setup =    0.027 sec

------------------------------
INITIAL GUESS: MODEL POTENTIAL
------------------------------
Loading Hartree-Fock densities                     ... done
Calculating cut-offs                               ... done
Setting up the integral package                    ... done
Initializing the effective Hamiltonian             ... done
Starting the Coulomb interaction                   ... done (   0.0 sec)
Reading the grid                                   ... done
Mapping shells                                     ... done
Starting the XC term evaluation                    ... done (   0.0 sec)
Transforming the Hamiltonian                       ... done (   0.0 sec)
Diagonalizing the Hamiltonian                      ... done (   0.0 sec)
Back transforming the eigenvectors                 ... done (   0.0 sec)
Now organizing SCF variables                       ... 
-----------------------------
DETECTED OPEN SHELL STRUCTURE
-----------------------------
  There are 1 open shells
  (1) From orb=  8 to orb=  8 deg= 1 Alpha=1 Beta=0 en= -0.2622
  DOUBLET case found

-------------------
FINAL ROHF SETTINGS
-------------------
Number of operators             ... 2
  operator   0:   8 orbitals  16 electrons n(mue)= 2.000
  operator   1:   1 orbitals   1 electrons n(mue)= 1.000
Vector coupling coefficients a and b (Zerner convention):
   1.000    1.000           1.000    1.000 
   1.000    1.000           1.000    2.000 

done
                      ------------------
                      INITIAL GUESS DONE (   0.2 sec)
                      ------------------
--------------
SCF ITERATIONS
--------------
ITER       Energy         Delta-E        Max-DP      RMS-DP      [F,P]     Damp
               ***  Starting incremental Fock matrix formation  ***
                            ****Activating DIIS****
  0   -150.1259856814   0.000000000000 0.04194754  0.00285687  0.0775804 0.0000
  1   -150.1642137965  -0.038228115064 0.01743608  0.00104012  0.0190582 0.0000
  2   -150.1689694877  -0.004755691191 0.01809175  0.00093108  0.0215227 0.0000
  3   -150.1720910011  -0.003121513415 0.02141971  0.00111801  0.0175967 0.0000
  4   -150.1753844363  -0.003293435235 0.02934642  0.00155453  0.0151909 0.0000
  5   -150.1790283002  -0.003643863858 0.03597654  0.00200042  0.0105922 0.0000
  6   -150.1816671707  -0.002638870559 0.00724745  0.00045446  0.0029985 0.0000
  7   -150.1818909741  -0.000223803317 0.00471377  0.00029799  0.0015949 0.0000
  8   -150.1819239859  -0.000033011813 0.00213606  0.00011339  0.0007967 0.0000
  9   -150.1819287538  -0.000004767894 0.00068687  0.00005077  0.0002893 0.0000
 10   -150.1819303691  -0.000001615356 0.00025568  0.00001025  0.0001579 0.0000
                 **** Energy Check signals convergence ****

               *****************************************************
               *                     SUCCESS                       *
               *           SCF CONVERGED AFTER  11 CYCLES          *
               *****************************************************


----------------
TOTAL SCF ENERGY
----------------

Total Energy       :         -150.18193056 Eh           -4086.65809 eV

Components:
Nuclear Repulsion  :           32.45304186 Eh             883.09216 eV
Electronic Energy  :         -182.63497243 Eh           -4969.75026 eV
One Electron Energy:         -271.58862675 Eh           -7390.30225 eV
Two Electron Energy:           88.95365432 Eh            2420.55199 eV

Virial components:
Potential Energy   :         -300.39210821 Eh           -8174.08483 eV
Kinetic Energy     :          150.21017765 Eh            4087.42673 eV
Virial Ratio       :            1.99981195


---------------
SCF CONVERGENCE
---------------

  Last Energy change         ...   -1.9316e-07  Tolerance :   1.0000e-06
  Last MAX-Density change    ...    6.4292e-05  Tolerance :   1.0000e-05
  Last RMS-Density change    ...    3.2626e-06  Tolerance :   1.0000e-06
  Last DIIS Error            ...    5.3124e-05  Tolerance :   1.0000e-06

             **** THE GBW FILE WAS UPDATED (/scratch/kmoore/ORCASCR_1548617078250505654/input.gbw) ****
             **** DENSITY FILE WAS UPDATED (/scratch/kmoore/ORCASCR_1548617078250505654/input.scfp.tmp) ****
             **** ENERGY FILE WAS UPDATED (/scratch/kmoore/ORCASCR_1548617078250505654/input.en.tmp) ****
----------------
ORBITAL ENERGIES
----------------

  NO   OCC          E(Eh)            E(eV) 
   0   2.0000     -20.661296      -562.2225 
   1   2.0000     -20.660363      -562.1971 
   2   2.0000      -1.549601       -42.1668 
   3   2.0000      -1.147945       -31.2372 
   4   2.0000      -0.758475       -20.6392 
   5   2.0000      -0.658355       -17.9147 
   6   2.0000      -0.622509       -16.9393 
   7   2.0000      -0.494589       -13.4585 
   8   1.0000      -0.574996       -15.6464 
   9   0.0000       0.172954         4.7063 
  10   0.0000       0.366638         9.9767 
  11   0.0000       0.778757        21.1911 
  12   0.0000       1.098132        29.8817 
  13   0.0000       1.100617        29.9493 
  14   0.0000       1.140925        31.0462 
  15   0.0000       1.161383        31.6028 
  16   0.0000       1.192753        32.4564 
  17   0.0000       1.263167        34.3725 
  18   0.0000       1.517176        41.2845 
  19   0.0000       1.529077        41.6083 
  20   0.0000       1.705795        46.4170 
  21   0.0000       2.005649        54.5765 
  22   0.0000       2.359314        64.2002 
  23   0.0000       2.459831        66.9354 
  24   0.0000       2.705920        73.6318 
  25   0.0000       2.822997        76.8177 
  26   0.0000       2.840807        77.3023 
  27   0.0000       2.949304        80.2546 
  28   0.0000       3.222836        87.6978 
  29   0.0000       3.504534        95.3632 
  30   0.0000       3.615635        98.3864 
  31   0.0000       3.895286       105.9961 
  32   0.0000       4.230077       115.1062 

                    ********************************
                    * MULLIKEN POPULATION ANALYSIS *
                    ********************************

--------------------------------------------
MULLIKEN ATOMIC CHARGES AND SPIN POPULATIONS
--------------------------------------------
   0 O :   -0.064090    0.891902
   1 O :   -0.143343    0.106383
   2 H :    0.207432    0.001715
Sum of atomic charges         :   -0.0000000
Sum of atomic spin populations:    1.0000000

-----------------------------------------------------
MULLIKEN REDUCED ORBITAL CHARGES AND SPIN POPULATIONS
-----------------------------------------------------
CHARGE
  0 O s       :     3.918336  s :     3.918336
      pz      :     1.023444  p :     4.120891
      px      :     1.988157
      py      :     1.109291
      dz2     :     0.015181  d :     0.024862
      dxz     :     0.003699
      dyz     :     0.005957
      dx2y2   :     0.000020
      dxy     :     0.000005
  1 O s       :     3.752960  s :     3.752960
      pz      :     1.067617  p :     4.361692
      px      :     1.431564
      py      :     1.862510
      dz2     :     0.014573  d :     0.028691
      dxz     :     0.006110
      dyz     :     0.003337
      dx2y2   :     0.003996
      dxy     :     0.000676
  2 H s       :     0.718657  s :     0.718657
      pz      :     0.009877  p :     0.073910
      px      :     0.045809
      py      :     0.018224

SPIN
  0 O s       :     0.000000  s :     0.000000
      pz      :     0.000000  p :     0.892178
      px      :     0.000000
      py      :     0.892178
      dz2     :    -0.000000  d :    -0.000276
      dxz     :    -0.000000
      dyz     :    -0.000278
      dx2y2   :     0.000000
      dxy     :     0.000002
  1 O s       :     0.000000  s :     0.000000
      pz      :     0.000000  p :     0.104923
      px      :     0.000000
      py      :     0.104923
      dz2     :    -0.000000  d :     0.001460
      dxz     :     0.000000
      dyz     :     0.001399
      dx2y2   :     0.000000
      dxy     :     0.000061
  2 H s       :     0.000000  s :     0.000000
      pz      :    -0.000000  p :     0.001715
      px      :     0.000000
      py      :     0.001715


                     *******************************
                     * LOEWDIN POPULATION ANALYSIS *
                     *******************************

-------------------------------------------
LOEWDIN ATOMIC CHARGES AND SPIN POPULATIONS
-------------------------------------------
   0 O :   -0.042653    0.875273
   1 O :   -0.012559    0.119132
   2 H :    0.055213    0.005595

----------------------------------------------------
LOEWDIN REDUCED ORBITAL CHARGES AND SPIN POPULATIONS
----------------------------------------------------
CHARGE
  0 O s       :     3.748777  s :     3.748777
      pz      :     1.156836  p :     4.253134
      px      :     1.974779
      py      :     1.121519
      dz2     :     0.024272  d :     0.040743
      dxz     :     0.006052
      dyz     :     0.010388
      dx2y2   :     0.000026
      dxy     :     0.000005
  1 O s       :     3.484933  s :     3.484933
      pz      :     1.169568  p :     4.476248
      px      :     1.497479
      py      :     1.809202
      dz2     :     0.024796  d :     0.051378
      dxz     :     0.013271
      dyz     :     0.005689
      dx2y2   :     0.007431
      dxy     :     0.000189
  2 H s       :     0.752102  s :     0.752102
      pz      :     0.031566  p :     0.192685
      px      :     0.108113
      py      :     0.053007

SPIN
  0 O s       :     0.000000  s :     0.000000
      pz      :     0.000000  p :     0.874793
      px      :     0.000000
      py      :     0.874793
      dz2     :     0.000000  d :     0.000479
      dxz     :     0.000000
      dyz     :     0.000477
      dx2y2   :     0.000000
      dxy     :     0.000002
  1 O s       :     0.000000  s :     0.000000
      pz      :     0.000000  p :     0.115173
      px      :     0.000000
      py      :     0.115173
      dz2     :     0.000000  d :     0.003959
      dxz     :     0.000000
      dyz     :     0.003950
      dx2y2   :     0.000000
      dxy     :     0.000009
  2 H s       :     0.000000  s :     0.000000
      pz      :     0.000000  p :     0.005595
      px      :     0.000000
      py      :     0.005595


                      *****************************
                      * MAYER POPULATION ANALYSIS *
                      *****************************

  NA   - Mulliken gross atomic population
  ZA   - Total nuclear charge
  QA   - Mulliken gross atomic charge
  VA   - Mayer's total valence
  BVA  - Mayer's bonded valence
  FA   - Mayer's free valence

  ATOM       NA         ZA         QA         VA         BVA        FA
  0 O      8.0641     8.0000    -0.0641     1.9186     1.1231     0.7955
  1 O      8.1433     8.0000    -0.1433     2.0906     2.0793     0.0113
  2 H      0.7926     1.0000     0.2074     0.9967     0.9967     0.0000

  Mayer bond orders larger than 0.1
B(  0-O ,  1-O ) :   1.1028 B(  1-O ,  2-H ) :   0.9765 

-------
TIMINGS
-------

Total SCF time: 0 days 0 hours 0 min 2 sec 

Total time                  ....       2.680 sec
Sum of individual times     ....       2.674 sec  ( 99.8%)

Fock matrix formation       ....       2.501 sec  ( 93.3%)
Diagonalization             ....       0.008 sec  (  0.3%)
Density matrix formation    ....       0.000 sec  (  0.0%)
Population analysis         ....       0.001 sec  (  0.0%)
Initial guess               ....       0.135 sec  (  5.0%)
Orbital Transformation      ....       0.000 sec  (  0.0%)
Orbital Orthonormalization  ....       0.000 sec  (  0.0%)
DIIS solution               ....       0.002 sec  (  0.1%)

-------------------------   --------------------
FINAL SINGLE POINT ENERGY      -150.181930562288
-------------------------   --------------------


                            ***************************************
                            *     ORCA property calculations      *
                            ***************************************

                                    ---------------------
                                    Active property flags
                                    ---------------------
   (+) Dipole Moment


------------------------------------------------------------------------------
                       ORCA ELECTRIC PROPERTIES CALCULATION
------------------------------------------------------------------------------

Dipole Moment Calculation                       ... on
Quadrupole Moment Calculation                   ... off
Polarizability Calculation                      ... off
GBWName                                         ... /scratch/kmoore/ORCASCR_1548617078250505654/input.gbw
Electron density file                           ... /scratch/kmoore/ORCASCR_1548617078250505654/input.scfp.tmp
The origin for moment calculation is the CENTER OF MASS  = ( 0.054459,  0.000000  1.292194)

-------------
DIPOLE MOMENT
-------------
                                X             Y             Z
Electronic contribution:     -0.13437      -0.00000      -0.48033
Nuclear contribution   :      0.85740       0.00000       0.83356
                        -----------------------------------------
Total Dipole Moment    :      0.72303      -0.00000       0.35323
                        -----------------------------------------
Magnitude (a.u.)       :      0.80470
Magnitude (Debye)      :      2.04538


Timings for individual modules:

Sum of individual times         ...        3.013 sec (=   0.050 min)
GTO integral calculation        ...        0.315 sec (=   0.005 min)  10.5 %
SCF iterations                  ...        2.698 sec (=   0.045 min)  89.5 %
                             ****ORCA TERMINATED NORMALLY****
TOTAL RUN TIME: 0 days 0 hours 0 minutes 3 seconds 146 msec
