 Entering Gaussian System, Link 0=g09
 Initial command:
 /soft/gaussian/09-e.01/g09/l1.exe "/scratch/kmoore/Gau-117853.inp" -scrdir="/scratch/kmoore"
 Entering Link 1 = /soft/gaussian/09-e.01/g09/l1.exe PID=    117854.
  
 Copyright (c) 1988,1990,1992,1993,1995,1998,2003,2009,2015,
            Gaussian, Inc.  All Rights Reserved.
  
 This is part of the Gaussian(R) 09 program.  It is based on
 the Gaussian(R) 03 system (copyright 2003, Gaussian, Inc.),
 the Gaussian(R) 98 system (copyright 1998, Gaussian, Inc.),
 the Gaussian(R) 94 system (copyright 1995, Gaussian, Inc.),
 the Gaussian 92(TM) system (copyright 1992, Gaussian, Inc.),
 the Gaussian 90(TM) system (copyright 1990, Gaussian, Inc.),
 the Gaussian 88(TM) system (copyright 1988, Gaussian, Inc.),
 the Gaussian 86(TM) system (copyright 1986, Carnegie Mellon
 University), and the Gaussian 82(TM) system (copyright 1983,
 Carnegie Mellon University). Gaussian is a federally registered
 trademark of Gaussian, Inc.
  
 This software contains proprietary and confidential information,
 including trade secrets, belonging to Gaussian, Inc.
  
 This software is provided under written license and may be
 used, copied, transmitted, or stored only in accord with that
 written license.
  
 The following legend is applicable only to US Government
 contracts under FAR:
  
                    RESTRICTED RIGHTS LEGEND
  
 Use, reproduction and disclosure by the US Government is
 subject to restrictions as set forth in subparagraphs (a)
 and (c) of the Commercial Computer Software - Restricted
 Rights clause in FAR 52.227-19.
  
 Gaussian, Inc.
 340 Quinnipiac St., Bldg. 40, Wallingford CT 06492
  
  
 ---------------------------------------------------------------
 Warning -- This program may not be used in any manner that
 competes with the business of Gaussian, Inc. or will provide
 assistance to any competitor of Gaussian, Inc.  The licensee
 of this program is prohibited from giving any competitor of
 Gaussian, Inc. access to this program.  By using this program,
 the user acknowledges that Gaussian, Inc. is engaged in the
 business of creating and licensing software in the field of
 computational chemistry and represents and warrants to the
 licensee that it is not a competitor of Gaussian, Inc. and that
 it will not use this program in any manner prohibited above.
 ---------------------------------------------------------------
  

 Cite this work as:
 Gaussian 09, Revision E.01,
 M. J. Frisch, G. W. Trucks, H. B. Schlegel, G. E. Scuseria, 
 M. A. Robb, J. R. Cheeseman, G. Scalmani, V. Barone, B. Mennucci, 
 G. A. Petersson, H. Nakatsuji, M. Caricato, X. Li, H. P. Hratchian, 
 A. F. Izmaylov, J. Bloino, G. Zheng, J. L. Sonnenberg, M. Hada, 
 M. Ehara, K. Toyota, R. Fukuda, J. Hasegawa, M. Ishida, T. Nakajima, 
 Y. Honda, O. Kitao, H. Nakai, T. Vreven, J. A. Montgomery, Jr., 
 J. E. Peralta, F. Ogliaro, M. Bearpark, J. J. Heyd, E. Brothers, 
 K. N. Kudin, V. N. Staroverov, T. Keith, R. Kobayashi, J. Normand, 
 K. Raghavachari, A. Rendell, J. C. Burant, S. S. Iyengar, J. Tomasi, 
 M. Cossi, N. Rega, J. M. Millam, M. Klene, J. E. Knox, J. B. Cross, 
 V. Bakken, C. Adamo, J. Jaramillo, R. Gomperts, R. E. Stratmann, 
 O. Yazyev, A. J. Austin, R. Cammi, C. Pomelli, J. W. Ochterski, 
 R. L. Martin, K. Morokuma, V. G. Zakrzewski, G. A. Voth, 
 P. Salvador, J. J. Dannenberg, S. Dapprich, A. D. Daniels, 
 O. Farkas, J. B. Foresman, J. V. Ortiz, J. Cioslowski, 
 and D. J. Fox, Gaussian, Inc., Wallingford CT, 2013.
 
 ******************************************
 Gaussian 09:  ES64L-G09RevE.01 30-Nov-2015
                27-Jan-2019 
 ******************************************
 %mem=30gb
 %nproc=8
 Will use up to    8 processors via shared memory.
 ----------------------------------------------------------------------
 #B3LYP/cc-pVDZ Integral(Grid=SuperFineGrid) Opt=(ts,calcfc,noeig,Carte
 sian) Freq
 ----------------------------------------------------------------------
 1/5=1,10=4,11=1,14=-1,18=10,26=5,38=1/1,3;
 2/12=2,17=6,18=5,29=2,40=1/2;
 3/5=16,11=2,16=1,25=1,30=1,71=2,74=-5,75=-7,140=1/1,2,3;
 4//1;
 5/5=2,38=5/2;
 8/6=4,10=90,11=11/1;
 11/6=1,8=1,9=11,15=111,16=1/1,2,10;
 10/6=1,13=1/2;
 6/7=2,8=2,9=2,10=2,28=1/1;
 7/7=1,10=1,18=20,25=1/1,2,3,16;
 1/5=1,10=4,11=1,14=-1,18=10,26=5/3(2);
 2/29=1/2;
 99/12=1/99;
 2/29=1/2;
 3/5=16,11=2,16=1,25=1,30=1,71=1,74=-5,75=-7/1,2,3;
 4/5=5,16=3,69=1/1;
 5/5=2,38=5/2;
 7/7=1/1,2,3,16;
 1/5=1,11=1,14=-1,18=10,26=5/3(-5);
 2/29=1/2;
 6/7=2,8=2,9=2,10=2,19=2,28=1/1;
 99/9=1,12=1/99;
 ------------
 Optimization
 ------------
 Symbolic Z-matrix:
 Charge =  0 Multiplicity = 1
 H                     0.        0.        0. 
 O                     0.        0.        0.992 
 C                     1.34384   0.        1.37734 
 H                     1.97835   0.        0.46779 
 H                     1.57701  -0.91576   1.96348 
 H                     1.57701   0.91576   1.96348 
 

 GradGradGradGradGradGradGradGradGradGradGradGradGradGradGradGradGradGrad
 Berny optimization.
 Initialization pass.
 No Z-matrix variables, so optimization will use Cartesian coordinates.
 Trust Radius=3.00D-01 FncErr=1.00D-07 GrdErr=1.00D-07
 Number of steps in this run=     28 maximum allowed number of steps=    100.
 Search for a saddle point of order  1.
 GradGradGradGradGradGradGradGradGradGradGradGradGradGradGradGradGradGrad

 ---------------------------------------------------------------------------------------------------
                            Z-MATRIX (ANGSTROMS AND DEGREES)
   CD    Cent   Atom    N1       Length/X        N2       Alpha/Y        N3        Beta/Z          J
 ---------------------------------------------------------------------------------------------------
      1      1  H        0   0.000000          0.000000          0.000000
      2      2  O        0   0.000000          0.000000          0.992000
      3      3  C        0   1.343844          0.000000          1.377341
      4      4  H        0   1.978354          0.000000          0.467793
      5      5  H        0   1.577009         -0.915763          1.963478
      6      6  H        0   1.577009          0.915763          1.963478
 ---------------------------------------------------------------------------------------------------
                         Z-Matrix orientation:                         
 ---------------------------------------------------------------------
 Center     Atomic      Atomic             Coordinates (Angstroms)
 Number     Number       Type             X           Y           Z
 ---------------------------------------------------------------------
      1          1           0        0.000000    0.000000    0.000000
      2          8           0        0.000000    0.000000    0.992000
      3          6           0        1.343844    0.000000    1.377341
      4          1           0        1.978354    0.000000    0.467793
      5          1           0        1.577009   -0.915763    1.963478
      6          1           0        1.577009    0.915763    1.963478
 ---------------------------------------------------------------------
                    Distance matrix (angstroms):
                    1          2          3          4          5
     1  H    0.000000
     2  O    0.992000   0.000000
     3  C    1.924314   1.398000   0.000000
     4  H    2.032908   2.046626   1.109000   0.000000
     5  H    2.679706   2.066240   1.112000   1.799103   0.000000
     6  H    2.679706   2.066240   1.112000   1.799103   1.831526
                    6
     6  H    0.000000
 Stoichiometry    CH4O
 Framework group  CS[SG(CH2O),X(H2)]
 Deg. of freedom     8
 Full point group                 CS      NOp   2
 Largest Abelian subgroup         CS      NOp   2
 Largest concise Abelian subgroup CS      NOp   2
                         Standard orientation:                         
 ---------------------------------------------------------------------
 Center     Atomic      Atomic             Coordinates (Angstroms)
 Number     Number       Type             X           Y           Z
 ---------------------------------------------------------------------
      1          1           0        0.897769   -1.020053    0.000000
      2          8           0       -0.055803   -0.746621    0.000000
      3          6           0       -0.055803    0.651379   -0.000000
      4          1           0        0.993405    1.010604    0.000000
      5          1           0       -0.554965    1.037073    0.915763
      6          1           0       -0.554965    1.037073   -0.915763
 ---------------------------------------------------------------------
 Rotational constants (GHZ):    122.1937543     25.4419249     24.5101528
 Standard basis: CC-pVDZ (5D, 7F)
 There are    35 symmetry adapted cartesian basis functions of A'  symmetry.
 There are    15 symmetry adapted cartesian basis functions of A"  symmetry.
 There are    33 symmetry adapted basis functions of A'  symmetry.
 There are    15 symmetry adapted basis functions of A"  symmetry.
    48 basis functions,    94 primitive gaussians,    50 cartesian basis functions
     9 alpha electrons        9 beta electrons
       nuclear repulsion energy        40.3588834740 Hartrees.
 NAtoms=    6 NActive=    6 NUniq=    5 SFac= 1.44D+00 NAtFMM=   60 NAOKFM=F Big=F
 Integral buffers will be    131072 words long.
 Raffenetti 2 integral format.
 Two-electron integral symmetry is turned on.
 One-electron integrals computed using PRISM.
 NBasis=    48 RedAO= T EigKep=  2.23D-02  NBF=    33    15
 NBsUse=    48 1.00D-06 EigRej= -1.00D+00 NBFU=    33    15
 ExpMin= 1.22D-01 ExpMax= 1.17D+04 ExpMxC= 4.01D+02 IAcc=3 IRadAn=         7 AccDes= 0.00D+00
 Harris functional with IExCor=  402 and IRadAn=       7 diagonalized for initial guess.
 HarFok:  IExCor=  402 AccDes= 0.00D+00 IRadAn=         7 IDoV= 1 UseB2=F ITyADJ=14
 ICtDFT=  3500011 ScaDFX=  1.000000  1.000000  1.000000  1.000000
 FoFCou: FMM=F IPFlag=           0 FMFlag=      100000 FMFlg1=           0
         NFxFlg=           0 DoJE=T BraDBF=F KetDBF=T FulRan=T
         wScrn=  0.000000 ICntrl=     500 IOpCl=  0 I1Cent=   200000004 NGrid=           0
         NMat0=    1 NMatS0=      1 NMatT0=    0 NMatD0=    1 NMtDS0=    0 NMtDT0=    0
 Petite list used in FoFCou.
 Initial guess orbital symmetries:
       Occupied  (A') (A') (A') (A') (A') (A") (A') (A') (A")
       Virtual   (A') (A') (A') (A") (A') (A') (A") (A') (A') (A")
                 (A') (A') (A') (A") (A') (A') (A") (A') (A") (A")
                 (A') (A") (A') (A') (A") (A') (A') (A') (A") (A')
                 (A') (A") (A') (A') (A") (A") (A') (A') (A')
 The electronic state of the initial guess is 1-A'.
 Keep R1 ints in memory in symmetry-blocked form, NReq=1597446.
 Requested convergence on RMS density matrix=1.00D-08 within 128 cycles.
 Requested convergence on MAX density matrix=1.00D-06.
 Requested convergence on             energy=1.00D-06.
 No special actions if energy rises.
 Integral accuracy reduced to 1.0D-05 until final iterations.
 Initial convergence to 1.0D-05 achieved.  Increase integral accuracy.
 SCF Done:  E(RB3LYP) =  -115.718458831     A.U. after   10 cycles
            NFock= 10  Conv=0.99D-08     -V/T= 2.0066
 DoSCS=F DFT=T ScalE2(SS,OS)=  1.000000  1.000000
 Range of M.O.s used for correlation:     1    48
 NBasis=    48 NAE=     9 NBE=     9 NFC=     0 NFV=     0
 NROrb=     48 NOA=     9 NOB=     9 NVA=    39 NVB=    39
 Symmetrizing basis deriv contribution to polar:
 IMax=3 JMax=2 DiffMx= 0.00D+00
 G2DrvN: will do     7 centers at a time, making    1 passes.
 Calling FoFCou, ICntrl=  3107 FMM=F I1Cent=   0 AccDes= 0.00D+00.
 End of G2Drv F.D. properties file   721 does not exist.
 End of G2Drv F.D. properties file   722 does not exist.
 End of G2Drv F.D. properties file   788 does not exist.
          IDoAtm=111111
          Differentiating once with respect to nuclear coordinates.
 Keep R1 ints in memory in symmetry-blocked form, NReq=1567694.
          There are    18 degrees of freedom in the 1st order CPHF.  IDoFFX=4 NUNeed=    18.
     15 vectors produced by pass  0 Test12= 1.95D-15 5.56D-09 XBig12= 5.29D-02 9.05D-02.
 AX will form    15 AO Fock derivatives at one time.
     15 vectors produced by pass  1 Test12= 1.95D-15 5.56D-09 XBig12= 6.88D-03 2.74D-02.
     15 vectors produced by pass  2 Test12= 1.95D-15 5.56D-09 XBig12= 1.08D-04 3.21D-03.
     15 vectors produced by pass  3 Test12= 1.95D-15 5.56D-09 XBig12= 4.79D-07 1.91D-04.
     15 vectors produced by pass  4 Test12= 1.95D-15 5.56D-09 XBig12= 4.39D-10 6.26D-06.
      9 vectors produced by pass  5 Test12= 1.95D-15 5.56D-09 XBig12= 2.13D-13 1.18D-07.
 InvSVY:  IOpt=1 It=  1 EMax= 1.33D-15
 Solved reduced A of dimension    84 with    15 vectors.
 End of Minotr F.D. properties file   721 does not exist.
 End of Minotr F.D. properties file   722 does not exist.
 End of Minotr F.D. properties file   788 does not exist.

 **********************************************************************

            Population analysis using the SCF density.

 **********************************************************************

 Orbital symmetries:
       Occupied  (A') (A') (A') (A') (A') (A") (A') (A') (A")
       Virtual   (A') (A') (A') (A") (A') (A') (A") (A') (A') (A")
                 (A') (A') (A') (A") (A') (A') (A") (A') (A") (A")
                 (A') (A") (A') (A') (A") (A') (A') (A') (A") (A')
                 (A') (A") (A') (A') (A") (A") (A') (A') (A')
 The electronic state is 1-A'.
 Alpha  occ. eigenvalues --  -19.12878 -10.22696  -1.01250  -0.66855  -0.50067
 Alpha  occ. eigenvalues --   -0.43471  -0.41993  -0.32245  -0.26106
 Alpha virt. eigenvalues --    0.04251   0.09103   0.13881   0.14008   0.20480
 Alpha virt. eigenvalues --    0.44462   0.45978   0.49290   0.57758   0.62158
 Alpha virt. eigenvalues --    0.62744   0.64206   0.87472   0.89851   0.94829
 Alpha virt. eigenvalues --    1.01865   1.06028   1.15468   1.35411   1.39935
 Alpha virt. eigenvalues --    1.44697   1.58057   1.62355   1.62713   1.64500
 Alpha virt. eigenvalues --    1.74728   1.80028   1.99851   2.07584   2.07735
 Alpha virt. eigenvalues --    2.11307   2.36126   2.38547   2.42454   2.93940
 Alpha virt. eigenvalues --    3.01318   3.07745   3.19518   3.64472
          Condensed to atoms (all electrons):
               1          2          3          4          5          6
     1  H    0.567161   0.343904  -0.048471  -0.025191   0.006620   0.006620
     2  O    0.343904   7.670549   0.370721  -0.027572  -0.036552  -0.036552
     3  C   -0.048471   0.370721   4.410029   0.396456   0.389197   0.389197
     4  H   -0.025191  -0.027572   0.396456   0.721016  -0.034259  -0.034259
     5  H    0.006620  -0.036552   0.389197  -0.034259   0.706786  -0.051023
     6  H    0.006620  -0.036552   0.389197  -0.034259  -0.051023   0.706786
 Mulliken charges:
               1
     1  H    0.149357
     2  O   -0.284498
     3  C    0.092870
     4  H    0.003809
     5  H    0.019231
     6  H    0.019231
 Sum of Mulliken charges =   0.00000
 Mulliken charges with hydrogens summed into heavy atoms:
               1
     2  O   -0.135141
     3  C    0.135141
 APT charges:
               1
     1  H    0.379373
     2  O   -0.486369
     3  C   -0.606553
     4  H    0.220292
     5  H    0.246629
     6  H    0.246629
 Sum of APT charges =   0.00000
 APT charges with hydrogens summed into heavy atoms:
               1
     2  O   -0.106996
     3  C    0.106996
 Electronic spatial extent (au):  <R**2>=             83.3436
 Charge=              0.0000 electrons
 Dipole moment (field-independent basis, Debye):
    X=              1.5003    Y=              0.7480    Z=             -0.0000  Tot=              1.6764
 Quadrupole moment (field-independent basis, Debye-Ang):
   XX=            -11.6756   YY=            -13.3110   ZZ=            -13.3947
   XY=             -1.8650   XZ=             -0.0000   YZ=              0.0000
 Traceless Quadrupole moment (field-independent basis, Debye-Ang):
   XX=              1.1182   YY=             -0.5172   ZZ=             -0.6010
   XY=             -1.8650   XZ=             -0.0000   YZ=              0.0000
 Octapole moment (field-independent basis, Debye-Ang**2):
  XXX=              2.2760  YYY=             -4.3485  ZZZ=              0.0000  XYY=              2.1000
  XXY=             -2.6341  XXZ=             -0.0000  XZZ=             -0.1710  YZZ=             -0.7325
  YYZ=             -0.0000  XYZ=             -0.0000
 Hexadecapole moment (field-independent basis, Debye-Ang**3):
 XXXX=            -19.9091 YYYY=            -60.1501 ZZZZ=            -19.3458 XXXY=              0.4569
 XXXZ=              0.0000 YYYX=             -0.4578 YYYZ=              0.0000 ZZZX=              0.0000
 ZZZY=              0.0000 XXYY=            -12.2989 XXZZ=             -6.7918 YYZZ=            -13.4945
 XXYZ=             -0.0000 YYXZ=              0.0000 ZZXY=              0.0012
 N-N= 4.035888347401D+01 E-N=-3.521490224026D+02  KE= 1.149605443511D+02
 Symmetry A'   KE= 1.083495974359D+02
 Symmetry A"   KE= 6.610946915218D+00
  Exact polarizability:   0.000   0.000   0.000   0.000   0.000   0.000
 Approx polarizability:  22.117  -1.625  21.559   0.000   0.000  18.114
 Calling FoFJK, ICntrl=    100147 FMM=F ISym2X=1 I1Cent= 0 IOpClX= 0 NMat=1 NMatS=1 NMatT=0.
 ***** Axes restored to original set *****
 -------------------------------------------------------------------
 Center     Atomic                   Forces (Hartrees/Bohr)
 Number     Number              X              Y              Z
 -------------------------------------------------------------------
      1        1          -0.004375025    0.000000000    0.025595779
      2        8          -0.018433718    0.000000000   -0.029090688
      3        6           0.012601720   -0.000000000   -0.004872001
      4        1           0.006501746   -0.000000000    0.006827379
      5        1           0.001852638    0.005441524    0.000769765
      6        1           0.001852638   -0.005441524    0.000769765
 -------------------------------------------------------------------
 Cartesian Forces:  Max     0.029090688 RMS     0.011053030

 GradGradGradGradGradGradGradGradGradGradGradGradGradGradGradGradGradGrad
 Berny optimization.
 Search for a saddle point.
 Step number   1 out of a maximum of   28
 All quantities printed in internal units (Hartrees-Bohrs-Radians)
 Swapping is turned off.
 Second derivative matrix not updated -- analytic derivatives used.
 The second derivative matrix:
                          X1        Y1        Z1        X2        Y2
           X1           0.06985
           Y1           0.00000   0.01157
           Z1           0.00666  -0.00000   0.43055
           X2          -0.04785  -0.00000  -0.01825   0.40227
           Y2           0.00000  -0.00642  -0.00000  -0.00000   0.03654
           Z2           0.04426   0.00000  -0.42447   0.07572   0.00000
           X3          -0.01496   0.00000   0.00980  -0.26976   0.00000
           Y3           0.00000  -0.00497  -0.00000   0.00000  -0.05476
           Z3          -0.04687   0.00000  -0.01315  -0.02192  -0.00000
           X4           0.00097   0.00000   0.00352  -0.04261   0.00000
           Y4           0.00000   0.00221   0.00000   0.00000   0.00213
           Z4          -0.00107  -0.00000   0.00618  -0.01212   0.00000
           X5          -0.00401   0.00459  -0.00086  -0.02102   0.02383
           Y5          -0.00033  -0.00120  -0.00175   0.00668   0.01125
           Z5          -0.00149   0.00182   0.00044  -0.01171   0.00512
           X6          -0.00401  -0.00459  -0.00086  -0.02102  -0.02383
           Y6           0.00033  -0.00120   0.00175  -0.00668   0.01125
           Z6          -0.00149  -0.00182   0.00044  -0.01171  -0.00512
                          Z2        X3        Y3        Z3        X4
           Z2           0.52516
           X3          -0.08470   0.50112
           Y3           0.00000  -0.00000   0.55208
           Z3          -0.10125  -0.00449   0.00000   0.57099
           X4           0.02002  -0.11386   0.00000   0.10213   0.14608
           Y4          -0.00000  -0.00000  -0.05172  -0.00000  -0.00000
           Z4           0.01038   0.11526   0.00000  -0.22608  -0.11889
           X5          -0.02765  -0.05127   0.02655  -0.01442   0.00471
           Y5           0.00043   0.03074  -0.22032   0.10442  -0.00076
           Z5          -0.00491  -0.01794   0.10148  -0.11525  -0.00339
           X6          -0.02765  -0.05127  -0.02655  -0.01442   0.00471
           Y6          -0.00043  -0.03074  -0.22032  -0.10442   0.00076
           Z6          -0.00491  -0.01794  -0.10148  -0.11525  -0.00339
                          Y4        Z4        X5        Y5        Z5
           Y4           0.04472
           Z4           0.00000   0.23449
           X5          -0.01453   0.00841   0.06840
           Y5           0.00133  -0.00117  -0.03838   0.22843
           Z5           0.02150  -0.01249   0.03145  -0.11592   0.12238
           X6           0.01453   0.00841   0.00320   0.00205   0.00308
           Y6           0.00133   0.00117  -0.00205  -0.01950  -0.01400
           Z6          -0.02150  -0.01249   0.00308   0.01400   0.00983
                          X6        Y6        Z6
           X6           0.06840
           Y6           0.03838   0.22843
           Z6           0.03145   0.11592   0.12238
 ITU=  0
     Eigenvalues ---    0.01250   0.06376   0.08384   0.09388   0.12074
     Eigenvalues ---    0.12203   0.17479   0.34137   0.62870   0.70340
     Eigenvalues ---    0.73141   0.87253
 Eigenvectors required to have negative eigenvalues:
                          Y1        Y2        Y4        Z6        Z5
   1                    0.83424  -0.30347  -0.24625  -0.22692   0.22692
                          Y6        Y5        X6        X5        Y3
   1                    0.15243   0.15243  -0.02881   0.02881  -0.01408
 RFO step:  Lambda0=1.250324202D-02 Lambda=-4.22917542D-03.
 ClnCor:  largest displacement from symmetrization is 5.56D-07 for atom     1.
 Linear search not attempted -- option 19 set.
 ClnCor:  largest displacement from symmetrization is 4.61D-16 for atom     1.
 B after Tr=    -0.002531    0.000000   -0.014668
         Rot=    1.000000   -0.000000    0.000621    0.000000 Ang=   0.07 deg.
 Variable       Old X    -DE/DX   Delta X   Delta X   Delta X     New X
                                 (Linear)    (Quad)   (Total)
    X1        0.00000  -0.00438   0.00000  -0.08155  -0.08413  -0.08413
    Y1       -0.00000   0.00000   0.00000   0.00000   0.00000  -0.00000
    Z1       -0.00000   0.02560   0.00000   0.03781   0.02304   0.02304
    X2        0.00000  -0.01843   0.00000  -0.02835  -0.03319  -0.03319
    Y2        0.00000   0.00000   0.00000  -0.00000  -0.00000   0.00000
    Z2        1.87461  -0.02909   0.00000  -0.01946  -0.03417   1.84044
    X3        2.53950   0.01260   0.00000   0.01426   0.00852   2.54802
    Y3       -0.00000  -0.00000   0.00000  -0.00000  -0.00000  -0.00000
    Z3        2.60280  -0.00487   0.00000  -0.02565  -0.03715   2.56565
    X4        3.73855   0.00650   0.00000   0.10443   0.10074   3.83929
    Y4       -0.00000  -0.00000   0.00000  -0.00000  -0.00000  -0.00000
    Z4        0.88400   0.00683   0.00000   0.04865   0.03876   0.92276
    X5        2.98012   0.00185   0.00000   0.01119   0.00403   2.98414
    Y5       -1.73054   0.00544   0.00000   0.03991   0.03991  -1.69064
    Z5        3.71044   0.00077   0.00000   0.01571   0.00476   3.71519
    X6        2.98012   0.00185   0.00000   0.01119   0.00403   2.98414
    Y6        1.73054  -0.00544   0.00000  -0.03991  -0.03991   1.69064
    Z6        3.71044   0.00077   0.00000   0.01571   0.00476   3.71519
         Item               Value     Threshold  Converged?
 Maximum Force            0.029091     0.000450     NO 
 RMS     Force            0.011053     0.000300     NO 
 Maximum Displacement     0.100738     0.001800     NO 
 RMS     Displacement     0.038183     0.001200     NO 
 Predicted change in Energy=-2.173449D-03
 GradGradGradGradGradGradGradGradGradGradGradGradGradGradGradGradGradGrad

                          Input orientation:                          
 ---------------------------------------------------------------------
 Center     Atomic      Atomic             Coordinates (Angstroms)
 Number     Number       Type             X           Y           Z
 ---------------------------------------------------------------------
      1          1           0       -0.044520   -0.000000    0.012194
      2          8           0       -0.017562    0.000000    0.973919
      3          6           0        1.348354   -0.000000    1.357684
      4          1           0        2.031662   -0.000000    0.488302
      5          1           0        1.579141   -0.894646    1.965995
      6          1           0        1.579141    0.894646    1.965995
 ---------------------------------------------------------------------
                    Distance matrix (angstroms):
                    1          2          3          4          5
     1  H    0.000000
     2  O    0.962103   0.000000
     3  C    1.936605   1.418803   0.000000
     4  H    2.130073   2.105978   1.105773   0.000000
     5  H    2.693326   2.081842   1.106208   1.785705   0.000000
     6  H    2.693326   2.081842   1.106208   1.785705   1.789291
                    6
     6  H    0.000000
 Stoichiometry    CH4O
 Framework group  CS[SG(CH2O),X(H2)]
 Deg. of freedom     8
 Full point group                 CS      NOp   2
 Largest Abelian subgroup         CS      NOp   2
 Largest concise Abelian subgroup CS      NOp   2
                         Standard orientation:                         
 ---------------------------------------------------------------------
 Center     Atomic      Atomic             Coordinates (Angstroms)
 Number     Number       Type             X           Y           Z
 ---------------------------------------------------------------------
      1          1           0        0.868920   -1.046044   -0.000000
      2          8           0       -0.049664   -0.759960   -0.000000
      3          6           0       -0.049664    0.658843    0.000000
      4          1           0        0.972134    1.081527   -0.000000
      5          1           0       -0.572877    1.045567    0.894646
      6          1           0       -0.572877    1.045567   -0.894646
 ---------------------------------------------------------------------
 Rotational constants (GHZ):    126.5582044     24.7060590     23.8135738
 Standard basis: CC-pVDZ (5D, 7F)
 There are    35 symmetry adapted cartesian basis functions of A'  symmetry.
 There are    15 symmetry adapted cartesian basis functions of A"  symmetry.
 There are    33 symmetry adapted basis functions of A'  symmetry.
 There are    15 symmetry adapted basis functions of A"  symmetry.
    48 basis functions,    94 primitive gaussians,    50 cartesian basis functions
     9 alpha electrons        9 beta electrons
       nuclear repulsion energy        40.1612343965 Hartrees.
 NAtoms=    6 NActive=    6 NUniq=    5 SFac= 1.44D+00 NAtFMM=   60 NAOKFM=F Big=F
 Integral buffers will be    131072 words long.
 Raffenetti 2 integral format.
 Two-electron integral symmetry is turned on.
 One-electron integrals computed using PRISM.
 NBasis=    48 RedAO= T EigKep=  2.28D-02  NBF=    33    15
 NBsUse=    48 1.00D-06 EigRej= -1.00D+00 NBFU=    33    15
 Initial guess from the checkpoint file:  "/scratch/kmoore/Gau-117854.chk"
 B after Tr=    -0.000000   -0.000000    0.000000
         Rot=    0.999996   -0.000000   -0.000000   -0.002995 Ang=  -0.34 deg.
 Initial guess orbital symmetries:
       Occupied  (A') (A') (A') (A') (A') (A") (A') (A') (A")
       Virtual   (A') (A') (A') (A') (A') (A') (A') (A') (A') (A')
                 (A') (A') (A') (A') (A') (A') (A') (A') (A') (A')
                 (A') (A') (A') (A') (A') (A') (A") (A") (A") (A")
                 (A") (A") (A") (A") (A") (A") (A") (A") (A")
 ExpMin= 1.22D-01 ExpMax= 1.17D+04 ExpMxC= 4.01D+02 IAcc=3 IRadAn=         5 AccDes= 0.00D+00
 Harris functional with IExCor=  402 and IRadAn=       5 diagonalized for initial guess.
 HarFok:  IExCor=  402 AccDes= 0.00D+00 IRadAn=         5 IDoV= 1 UseB2=F ITyADJ=14
 ICtDFT=  3500011 ScaDFX=  1.000000  1.000000  1.000000  1.000000
 FoFCou: FMM=F IPFlag=           0 FMFlag=      100000 FMFlg1=           0
         NFxFlg=           0 DoJE=T BraDBF=F KetDBF=T FulRan=T
         wScrn=  0.000000 ICntrl=     500 IOpCl=  0 I1Cent=   200000004 NGrid=           0
         NMat0=    1 NMatS0=      1 NMatT0=    0 NMatD0=    1 NMtDS0=    0 NMtDT0=    0
 Petite list used in FoFCou.
 Keep R1 ints in memory in symmetry-blocked form, NReq=1597446.
 Requested convergence on RMS density matrix=1.00D-08 within 128 cycles.
 Requested convergence on MAX density matrix=1.00D-06.
 Requested convergence on             energy=1.00D-06.
 No special actions if energy rises.
 Integral accuracy reduced to 1.0D-05 until final iterations.
 Initial convergence to 1.0D-05 achieved.  Increase integral accuracy.
 SCF Done:  E(RB3LYP) =  -115.720645816     A.U. after    9 cycles
            NFock=  9  Conv=0.74D-08     -V/T= 2.0065
 Calling FoFJK, ICntrl=      2127 FMM=F ISym2X=1 I1Cent= 0 IOpClX= 0 NMat=1 NMatS=1 NMatT=0.
 ***** Axes restored to original set *****
 -------------------------------------------------------------------
 Center     Atomic                   Forces (Hartrees/Bohr)
 Number     Number              X              Y              Z
 -------------------------------------------------------------------
      1        1          -0.001214451    0.000000000   -0.002423185
      2        8          -0.000711364    0.000000000    0.002029564
      3        6           0.001400809    0.000000000   -0.000751213
      4        1           0.000616421    0.000000000    0.000991430
      5        1          -0.000045708    0.000186180    0.000076702
      6        1          -0.000045708   -0.000186180    0.000076702
 -------------------------------------------------------------------
 Cartesian Forces:  Max     0.002423185 RMS     0.000941236

 GradGradGradGradGradGradGradGradGradGradGradGradGradGradGradGradGradGrad
 Berny optimization.
 Search for a saddle point.
 Step number   2 out of a maximum of   28
 All quantities printed in internal units (Hartrees-Bohrs-Radians)
 Swapping is turned off.
 Update second derivatives using D2CorN and points    1    2
 The second derivative matrix:
                          X1        Y1        Z1        X2        Y2
           X1           0.06700
           Y1          -0.00000   0.01157
           Z1           0.00300  -0.00000   0.43277
           X2          -0.04938  -0.00000  -0.01958   0.40150
           Y2           0.00000  -0.00642  -0.00000  -0.00000   0.03654
           Z2           0.04750   0.00000  -0.42716   0.07683   0.00000
           X3          -0.01251   0.00000   0.00958  -0.26875   0.00000
           Y3          -0.00000  -0.00497  -0.00000   0.00000  -0.05476
           Z3          -0.04855   0.00000  -0.01465  -0.02277  -0.00000
           X4           0.00289   0.00000   0.00831  -0.04137   0.00000
           Y4           0.00000   0.00221   0.00000   0.00000   0.00213
           Z4           0.00085  -0.00000   0.00770  -0.01117  -0.00000
           X5          -0.00400   0.00459  -0.00065  -0.02100   0.02383
           Y5           0.00038  -0.00120   0.00016   0.00715   0.01125
           Z5          -0.00140   0.00182   0.00067  -0.01166   0.00512
           X6          -0.00400  -0.00459  -0.00065  -0.02100  -0.02383
           Y6          -0.00038  -0.00120  -0.00016  -0.00715   0.01125
           Z6          -0.00140  -0.00182   0.00067  -0.01166  -0.00512
                          Z2        X3        Y3        Z3        X4
           Z2           0.52826
           X3          -0.08415   0.50066
           Y3           0.00000  -0.00000   0.55208
           Z3          -0.09999  -0.00337  -0.00000   0.57007
           X4           0.01553  -0.11663   0.00000   0.10348   0.14557
           Y4          -0.00000  -0.00000  -0.05172  -0.00000  -0.00000
           Z4           0.00914   0.11407   0.00000  -0.22504  -0.12051
           X5          -0.02786  -0.05138   0.02655  -0.01440   0.00477
           Y5          -0.00137   0.02964  -0.22032   0.10493  -0.00090
           Z5          -0.00512  -0.01807   0.10148  -0.11519  -0.00340
           X6          -0.02786  -0.05138  -0.02655  -0.01440   0.00477
           Y6           0.00137  -0.02964  -0.22032  -0.10493   0.00090
           Z6          -0.00512  -0.01807  -0.10148  -0.11519  -0.00340
                          Y4        Z4        X5        Y5        Z5
           Y4           0.04472
           Z4           0.00000   0.23333
           X5          -0.01453   0.00838   0.06841
           Y5           0.00133  -0.00179  -0.03835   0.22840
           Z5           0.02150  -0.01256   0.03146  -0.11592   0.12238
           X6           0.01453   0.00838   0.00320   0.00208   0.00308
           Y6           0.00133   0.00179  -0.00208  -0.01947  -0.01400
           Z6          -0.02150  -0.01256   0.00308   0.01400   0.00983
                          X6        Y6        Z6
           X6           0.06841
           Y6           0.03835   0.22840
           Z6           0.03146   0.11592   0.12238
 ITU=  0  0
     Eigenvalues ---    0.01271   0.05820   0.08341   0.09344   0.12079
     Eigenvalues ---    0.12162   0.17503   0.34106   0.63041   0.70432
     Eigenvalues ---    0.73485   0.87473
 Eigenvectors required to have negative eigenvalues:
                          Y1        Y2        Y4        Z6        Z5
   1                    0.83667  -0.30929  -0.23617  -0.22302   0.22302
                          Y6        Y5        X6        X5        Y3
   1                    0.15259   0.15259  -0.03431   0.03431  -0.01259
 RFO step:  Lambda0=1.271153934D-02 Lambda=-6.95135639D-05.
 ClnCor:  largest displacement from symmetrization is 1.75D-09 for atom     1.
 Linear search not attempted -- option 19 set.
 ClnCor:  largest displacement from symmetrization is 4.44D-16 for atom     3.
 B after Tr=     0.000097    0.000000   -0.000031
         Rot=    1.000000   -0.000000   -0.000139   -0.000000 Ang=  -0.02 deg.
 Variable       Old X    -DE/DX   Delta X   Delta X   Delta X     New X
                                 (Linear)    (Quad)   (Total)
    X1       -0.08413  -0.00121   0.00000  -0.02146  -0.02135  -0.10548
    Y1       -0.00000   0.00000   0.00000   0.00000   0.00000  -0.00000
    Z1        0.02304  -0.00242   0.00000  -0.00562  -0.00562   0.01743
    X2       -0.03319  -0.00071   0.00000  -0.00064  -0.00003  -0.03322
    Y2        0.00000   0.00000   0.00000   0.00000   0.00000   0.00000
    Z2        1.84044   0.00203   0.00000   0.00055   0.00053   1.84097
    X3        2.54802   0.00140   0.00000   0.00366   0.00447   2.55249
    Y3       -0.00000   0.00000   0.00000  -0.00000  -0.00000  -0.00000
    Z3        2.56565  -0.00075   0.00000  -0.00317  -0.00391   2.56174
    X4        3.83929   0.00062   0.00000   0.01745   0.01781   3.85710
    Y4       -0.00000   0.00000   0.00000  -0.00000  -0.00000  -0.00000
    Z4        0.92276   0.00099   0.00000   0.00890   0.00780   0.93056
    X5        2.98414  -0.00005   0.00000  -0.00158  -0.00045   2.98369
    Y5       -1.69064   0.00019   0.00000   0.00221   0.00221  -1.68843
    Z5        3.71519   0.00008   0.00000   0.00146   0.00060   3.71579
    X6        2.98414  -0.00005   0.00000  -0.00158  -0.00045   2.98369
    Y6        1.69064  -0.00019   0.00000  -0.00221  -0.00221   1.68843
    Z6        3.71519   0.00008   0.00000   0.00146   0.00060   3.71579
         Item               Value     Threshold  Converged?
 Maximum Force            0.002423     0.000450     NO 
 RMS     Force            0.000941     0.000300     NO 
 Maximum Displacement     0.021354     0.001800     NO 
 RMS     Displacement     0.007118     0.001200     NO 
 Predicted change in Energy=-3.475548D-05
 GradGradGradGradGradGradGradGradGradGradGradGradGradGradGradGradGradGrad

                          Input orientation:                          
 ---------------------------------------------------------------------
 Center     Atomic      Atomic             Coordinates (Angstroms)
 Number     Number       Type             X           Y           Z
 ---------------------------------------------------------------------
      1          1           0       -0.055820   -0.000000    0.009221
      2          8           0       -0.017578    0.000000    0.974197
      3          6           0        1.350720   -0.000000    1.355616
      4          1           0        2.041087   -0.000000    0.492429
      5          1           0        1.578903   -0.893477    1.966314
      6          1           0        1.578903    0.893477    1.966314
 ---------------------------------------------------------------------
                    Distance matrix (angstroms):
                    1          2          3          4          5
     1  H    0.000000
     2  O    0.965734   0.000000
     3  C    1.947084   1.420465   0.000000
     4  H    2.151862   2.114285   1.105305   0.000000
     5  H    2.702005   2.081189   1.106038   1.784447   0.000000
     6  H    2.702005   2.081189   1.106038   1.784447   1.786954
                    6
     6  H    0.000000
 Stoichiometry    CH4O
 Framework group  CS[SG(CH2O),X(H2)]
 Deg. of freedom     8
 Full point group                 CS      NOp   2
 Largest Abelian subgroup         CS      NOp   2
 Largest concise Abelian subgroup CS      NOp   2
                         Standard orientation:                         
 ---------------------------------------------------------------------
 Center     Atomic      Atomic             Coordinates (Angstroms)
 Number     Number       Type             X           Y           Z
 ---------------------------------------------------------------------
      1          1           0        0.870261   -1.056452   -0.000000
      2          8           0       -0.049007   -0.760502    0.000000
      3          6           0       -0.049007    0.659963   -0.000000
      4          1           0        0.967855    1.093195   -0.000000
      5          1           0       -0.576006    1.043748    0.893477
      6          1           0       -0.576006    1.043748   -0.893477
 ---------------------------------------------------------------------
 Rotational constants (GHZ):    126.7283527     24.6242867     23.7341807
 Standard basis: CC-pVDZ (5D, 7F)
 There are    35 symmetry adapted cartesian basis functions of A'  symmetry.
 There are    15 symmetry adapted cartesian basis functions of A"  symmetry.
 There are    33 symmetry adapted basis functions of A'  symmetry.
 There are    15 symmetry adapted basis functions of A"  symmetry.
    48 basis functions,    94 primitive gaussians,    50 cartesian basis functions
     9 alpha electrons        9 beta electrons
       nuclear repulsion energy        40.1074303166 Hartrees.
 NAtoms=    6 NActive=    6 NUniq=    5 SFac= 1.44D+00 NAtFMM=   60 NAOKFM=F Big=F
 Integral buffers will be    131072 words long.
 Raffenetti 2 integral format.
 Two-electron integral symmetry is turned on.
 One-electron integrals computed using PRISM.
 NBasis=    48 RedAO= T EigKep=  2.28D-02  NBF=    33    15
 NBsUse=    48 1.00D-06 EigRej= -1.00D+00 NBFU=    33    15
 Initial guess from the checkpoint file:  "/scratch/kmoore/Gau-117854.chk"
 B after Tr=     0.000000   -0.000000   -0.000000
         Rot=    1.000000    0.000000   -0.000000   -0.000647 Ang=  -0.07 deg.
 Initial guess orbital symmetries:
       Occupied  (A') (A') (A') (A') (A') (A") (A') (A') (A")
       Virtual   (A') (A') (A') (A') (A') (A') (A') (A') (A') (A')
                 (A') (A') (A') (A') (A') (A') (A') (A') (A') (A')
                 (A') (A') (A') (A') (A') (A') (A") (A") (A") (A")
                 (A") (A") (A") (A") (A") (A") (A") (A") (A")
 ExpMin= 1.22D-01 ExpMax= 1.17D+04 ExpMxC= 4.01D+02 IAcc=3 IRadAn=         5 AccDes= 0.00D+00
 Harris functional with IExCor=  402 and IRadAn=       5 diagonalized for initial guess.
 HarFok:  IExCor=  402 AccDes= 0.00D+00 IRadAn=         5 IDoV= 1 UseB2=F ITyADJ=14
 ICtDFT=  3500011 ScaDFX=  1.000000  1.000000  1.000000  1.000000
 FoFCou: FMM=F IPFlag=           0 FMFlag=      100000 FMFlg1=           0
         NFxFlg=           0 DoJE=T BraDBF=F KetDBF=T FulRan=T
         wScrn=  0.000000 ICntrl=     500 IOpCl=  0 I1Cent=   200000004 NGrid=           0
         NMat0=    1 NMatS0=      1 NMatT0=    0 NMatD0=    1 NMtDS0=    0 NMtDT0=    0
 Petite list used in FoFCou.
 Keep R1 ints in memory in symmetry-blocked form, NReq=1597446.
 Requested convergence on RMS density matrix=1.00D-08 within 128 cycles.
 Requested convergence on MAX density matrix=1.00D-06.
 Requested convergence on             energy=1.00D-06.
 No special actions if energy rises.
 Integral accuracy reduced to 1.0D-05 until final iterations.
 Initial convergence to 1.0D-05 achieved.  Increase integral accuracy.
 SCF Done:  E(RB3LYP) =  -115.720678853     A.U. after    9 cycles
            NFock=  9  Conv=0.36D-08     -V/T= 2.0066
 Calling FoFJK, ICntrl=      2127 FMM=F ISym2X=1 I1Cent= 0 IOpClX= 0 NMat=1 NMatS=1 NMatT=0.
 ***** Axes restored to original set *****
 -------------------------------------------------------------------
 Center     Atomic                   Forces (Hartrees/Bohr)
 Number     Number              X              Y              Z
 -------------------------------------------------------------------
      1        1          -0.000080714   -0.000000000    0.001106390
      2        8          -0.000050354    0.000000000   -0.001164634
      3        6           0.000251073   -0.000000000   -0.000077621
      4        1          -0.000062376    0.000000000    0.000169736
      5        1          -0.000028814   -0.000018522   -0.000016936
      6        1          -0.000028814    0.000018522   -0.000016936
 -------------------------------------------------------------------
 Cartesian Forces:  Max     0.001164634 RMS     0.000386883

 GradGradGradGradGradGradGradGradGradGradGradGradGradGradGradGradGradGrad
 Berny optimization.
 Search for a saddle point.
 Step number   3 out of a maximum of   28
 All quantities printed in internal units (Hartrees-Bohrs-Radians)
 Swapping is turned off.
 Update second derivatives using D2CorN and points    1    2    3
 The second derivative matrix:
                          X1        Y1        Z1        X2        Y2
           X1           0.06490
           Y1          -0.00000   0.01157
           Z1           0.01599  -0.00000   0.43979
           X2          -0.05026  -0.00000  -0.01960   0.40120
           Y2           0.00000  -0.00642  -0.00000  -0.00000   0.03654
           Z2           0.03386   0.00000  -0.43113   0.07669   0.00000
           X3          -0.00888   0.00000   0.00715  -0.26821   0.00000
           Y3          -0.00000  -0.00497  -0.00000   0.00000  -0.05476
           Z3          -0.04988   0.00000  -0.01235  -0.02316   0.00000
           X4           0.00281   0.00000  -0.00269  -0.04072  -0.00000
           Y4           0.00000   0.00221   0.00000   0.00000   0.00213
           Z4           0.00328  -0.00000   0.00317  -0.01065  -0.00000
           X5          -0.00429   0.00459  -0.00042  -0.02101   0.02383
           Y5           0.00031  -0.00120  -0.00119   0.00734   0.01125
           Z5          -0.00163   0.00182   0.00026  -0.01164   0.00512
           X6          -0.00429  -0.00459  -0.00042  -0.02101  -0.02383
           Y6          -0.00031  -0.00120   0.00119  -0.00734   0.01125
           Z6          -0.00163  -0.00182   0.00026  -0.01164  -0.00512
                          Z2        X3        Y3        Z3        X4
           Z2           0.52898
           X3          -0.08093   0.49944
           Y3           0.00000  -0.00000   0.55208
           Z3          -0.10260  -0.00228  -0.00000   0.56947
           X4           0.02669  -0.11971   0.00000   0.10424   0.14757
           Y4          -0.00000  -0.00000  -0.05172  -0.00000  -0.00000
           Z4           0.01425   0.11234   0.00000  -0.22411  -0.12197
           X5          -0.02816  -0.05133   0.02655  -0.01446   0.00503
           Y5          -0.00002   0.02894  -0.22032   0.10511  -0.00040
           Z5          -0.00475  -0.01815   0.10148  -0.11521  -0.00314
           X6          -0.02816  -0.05133  -0.02655  -0.01446   0.00503
           Y6           0.00002  -0.02894  -0.22032  -0.10511   0.00040
           Z6          -0.00475  -0.01815  -0.10148  -0.11521  -0.00314
                          Y4        Z4        X5        Y5        Z5
           Y4           0.04472
           Z4           0.00000   0.23175
           X5          -0.01453   0.00849   0.06840
           Y5           0.00133  -0.00208  -0.03831   0.22851
           Z5           0.02150  -0.01253   0.03146  -0.11587   0.12239
           X6           0.01453   0.00849   0.00320   0.00213   0.00308
           Y6           0.00133   0.00208  -0.00213  -0.01958  -0.01405
           Z6          -0.02150  -0.01253   0.00308   0.01405   0.00984
                          X6        Y6        Z6
           X6           0.06840
           Y6           0.03831   0.22851
           Z6           0.03146   0.11587   0.12239
 ITU=  0  0  0
     Eigenvalues ---    0.01272   0.05516   0.08337   0.09381   0.12084
     Eigenvalues ---    0.12179   0.17537   0.34116   0.63495   0.70421
     Eigenvalues ---    0.73575   0.87694
 Eigenvectors required to have negative eigenvalues:
                          Y1        Y2        Y4        Z6        Z5
   1                    0.83569  -0.31098  -0.23475  -0.22335   0.22335
                          Y6        Y5        X6        X5        Y3
   1                    0.15386   0.15386  -0.03567   0.03567  -0.01187
 RFO step:  Lambda0=1.272456034D-02 Lambda=-3.27632461D-06.
 ClnCor:  largest displacement from symmetrization is 1.32D-07 for atom     1.
 Linear search not attempted -- option 19 set.
 ClnCor:  largest displacement from symmetrization is 1.60D-15 for atom     6.
 B after Tr=     0.000345   -0.000000   -0.000428
         Rot=    1.000000    0.000000    0.000042   -0.000000 Ang=   0.00 deg.
 Variable       Old X    -DE/DX   Delta X   Delta X   Delta X     New X
                                 (Linear)    (Quad)   (Total)
    X1       -0.10548  -0.00008   0.00000  -0.00160  -0.00125  -0.10674
    Y1       -0.00000  -0.00000   0.00000   0.00000  -0.00000  -0.00000
    Z1        0.01743   0.00111   0.00000   0.00194   0.00150   0.01893
    X2       -0.03322  -0.00005   0.00000   0.00022   0.00041  -0.03281
    Y2        0.00000   0.00000   0.00000  -0.00000  -0.00000   0.00000
    Z2        1.84097  -0.00116   0.00000  -0.00065  -0.00108   1.83988
    X3        2.55249   0.00025   0.00000   0.00041   0.00054   2.55303
    Y3       -0.00000  -0.00000   0.00000  -0.00000   0.00000  -0.00000
    Z3        2.56174  -0.00008   0.00000  -0.00024  -0.00045   2.56129
    X4        3.85710  -0.00006   0.00000   0.00108   0.00134   3.85844
    Y4       -0.00000   0.00000   0.00000   0.00000   0.00000  -0.00000
    Z4        0.93056   0.00017   0.00000   0.00091   0.00080   0.93136
    X5        2.98369  -0.00003   0.00000  -0.00055  -0.00052   2.98318
    Y5       -1.68843  -0.00002   0.00000  -0.00017  -0.00017  -1.68860
    Z5        3.71579  -0.00002   0.00000  -0.00021  -0.00039   3.71541
    X6        2.98369  -0.00003   0.00000  -0.00055  -0.00052   2.98318
    Y6        1.68843   0.00002   0.00000   0.00017   0.00017   1.68860
    Z6        3.71579  -0.00002   0.00000  -0.00021  -0.00039   3.71541
         Item               Value     Threshold  Converged?
 Maximum Force            0.001165     0.000450     NO 
 RMS     Force            0.000387     0.000300     NO 
 Maximum Displacement     0.001504     0.001800     YES
 RMS     Displacement     0.000708     0.001200     YES
 Predicted change in Energy=-1.645192D-06
 GradGradGradGradGradGradGradGradGradGradGradGradGradGradGradGradGradGrad

                          Input orientation:                          
 ---------------------------------------------------------------------
 Center     Atomic      Atomic             Coordinates (Angstroms)
 Number     Number       Type             X           Y           Z
 ---------------------------------------------------------------------
      1          1           0       -0.056484   -0.000000    0.010017
      2          8           0       -0.017362    0.000000    0.973625
      3          6           0        1.351004   -0.000000    1.355377
      4          1           0        2.041799   -0.000000    0.492854
      5          1           0        1.578630   -0.893569    1.966108
      6          1           0        1.578630    0.893569    1.966108
 ---------------------------------------------------------------------
                    Distance matrix (angstroms):
                    1          2          3          4          5
     1  H    0.000000
     2  O    0.964402   0.000000
     3  C    1.947053   1.420620   0.000000
     4  H    2.153119   2.114541   1.105053   0.000000
     5  H    2.701547   2.081028   1.106016   1.784228   0.000000
     6  H    2.701547   2.081028   1.106016   1.784228   1.787138
                    6
     6  H    0.000000
 Stoichiometry    CH4O
 Framework group  CS[SG(CH2O),X(H2)]
 Deg. of freedom     8
 Full point group                 CS      NOp   2
 Largest Abelian subgroup         CS      NOp   2
 Largest concise Abelian subgroup CS      NOp   2
                         Standard orientation:                         
 ---------------------------------------------------------------------
 Center     Atomic      Atomic             Coordinates (Angstroms)
 Number     Number       Type             X           Y           Z
 ---------------------------------------------------------------------
      1          1           0        0.868769   -1.057142    0.000000
      2          8           0       -0.048882   -0.760517   -0.000000
      3          6           0       -0.048882    0.660103    0.000000
      4          1           0        0.967546    1.093710    0.000000
      5          1           0       -0.575982    1.043473    0.893569
      6          1           0       -0.575982    1.043473   -0.893569
 ---------------------------------------------------------------------
 Rotational constants (GHZ):    126.8260998     24.6190977     23.7335211
 Standard basis: CC-pVDZ (5D, 7F)
 There are    35 symmetry adapted cartesian basis functions of A'  symmetry.
 There are    15 symmetry adapted cartesian basis functions of A"  symmetry.
 There are    33 symmetry adapted basis functions of A'  symmetry.
 There are    15 symmetry adapted basis functions of A"  symmetry.
    48 basis functions,    94 primitive gaussians,    50 cartesian basis functions
     9 alpha electrons        9 beta electrons
       nuclear repulsion energy        40.1123569584 Hartrees.
 NAtoms=    6 NActive=    6 NUniq=    5 SFac= 1.44D+00 NAtFMM=   60 NAOKFM=F Big=F
 Integral buffers will be    131072 words long.
 Raffenetti 2 integral format.
 Two-electron integral symmetry is turned on.
 One-electron integrals computed using PRISM.
 NBasis=    48 RedAO= T EigKep=  2.28D-02  NBF=    33    15
 NBsUse=    48 1.00D-06 EigRej= -1.00D+00 NBFU=    33    15
 Initial guess from the checkpoint file:  "/scratch/kmoore/Gau-117854.chk"
 B after Tr=    -0.000000   -0.000000    0.000000
         Rot=    1.000000    0.000000    0.000000    0.000030 Ang=   0.00 deg.
 Initial guess orbital symmetries:
       Occupied  (A') (A') (A') (A') (A') (A") (A') (A') (A")
       Virtual   (A') (A') (A') (A') (A') (A') (A') (A') (A') (A')
                 (A') (A') (A') (A') (A') (A') (A') (A') (A') (A')
                 (A') (A') (A') (A') (A') (A') (A") (A") (A") (A")
                 (A") (A") (A") (A") (A") (A") (A") (A") (A")
 Keep R1 ints in memory in symmetry-blocked form, NReq=1597446.
 Requested convergence on RMS density matrix=1.00D-08 within 128 cycles.
 Requested convergence on MAX density matrix=1.00D-06.
 Requested convergence on             energy=1.00D-06.
 No special actions if energy rises.
 SCF Done:  E(RB3LYP) =  -115.720680249     A.U. after    7 cycles
            NFock=  7  Conv=0.49D-08     -V/T= 2.0065
 Calling FoFJK, ICntrl=      2127 FMM=F ISym2X=1 I1Cent= 0 IOpClX= 0 NMat=1 NMatS=1 NMatT=0.
 ***** Axes restored to original set *****
 -------------------------------------------------------------------
 Center     Atomic                   Forces (Hartrees/Bohr)
 Number     Number              X              Y              Z
 -------------------------------------------------------------------
      1        1          -0.000028956    0.000000000   -0.000211527
      2        8           0.000055526    0.000000000    0.000206156
      3        6          -0.000005824    0.000000000   -0.000005398
      4        1          -0.000010788    0.000000000    0.000006936
      5        1          -0.000004979    0.000000015    0.000001916
      6        1          -0.000004979   -0.000000015    0.000001916
 -------------------------------------------------------------------
 Cartesian Forces:  Max     0.000211527 RMS     0.000071278

 GradGradGradGradGradGradGradGradGradGradGradGradGradGradGradGradGradGrad
 Berny optimization.
 Search for a saddle point.
 Step number   4 out of a maximum of   28
 All quantities printed in internal units (Hartrees-Bohrs-Radians)
 Swapping is turned off.
 Update second derivatives using D2CorN and points    1    2    3    4
 The second derivative matrix:
                          X1        Y1        Z1        X2        Y2
           X1           0.05929
           Y1          -0.00000   0.01157
           Z1           0.00494  -0.00000   0.47754
           X2          -0.04590  -0.00000  -0.02029   0.39913
           Y2           0.00000  -0.00642  -0.00000  -0.00000   0.03654
           Z2           0.04611   0.00000  -0.46493   0.07616   0.00000
           X3          -0.00724   0.00000   0.01318  -0.26958   0.00000
           Y3           0.00000  -0.00497  -0.00000   0.00000  -0.05476
           Z3          -0.05202   0.00000  -0.01704  -0.02161   0.00000
           X4           0.00411   0.00000   0.01395  -0.04426   0.00000
           Y4           0.00000   0.00221   0.00000   0.00000   0.00213
           Z4           0.00555  -0.00000   0.01216  -0.01298  -0.00000
           X5          -0.00513   0.00459  -0.00589  -0.01969   0.02383
           Y5           0.00023  -0.00120  -0.00217   0.00762   0.01125
           Z5          -0.00229   0.00182  -0.00386  -0.01064   0.00512
           X6          -0.00513  -0.00459  -0.00589  -0.01969  -0.02383
           Y6          -0.00023  -0.00120   0.00217  -0.00762   0.01125
           Z6          -0.00229  -0.00182  -0.00386  -0.01064  -0.00512
                          Z2        X3        Y3        Z3        X4
           Z2           0.55804
           X3          -0.08697   0.49932
           Y3           0.00000  -0.00000   0.55208
           Z3          -0.09728  -0.00175   0.00000   0.56862
           X4           0.00934  -0.11962  -0.00000   0.10512   0.15051
           Y4          -0.00000  -0.00000  -0.05172  -0.00000  -0.00000
           Z4           0.00479   0.11201  -0.00000  -0.22323  -0.12175
           X5          -0.02232  -0.05144   0.02655  -0.01487   0.00463
           Y5           0.00092   0.02871  -0.22032   0.10509  -0.00063
           Z5          -0.00031  -0.01824   0.10148  -0.11554  -0.00333
           X6          -0.02232  -0.05144  -0.02655  -0.01487   0.00463
           Y6          -0.00092  -0.02871  -0.22032  -0.10509   0.00063
           Z6          -0.00031  -0.01824  -0.10148  -0.11554  -0.00333
                          Y4        Z4        X5        Y5        Z5
           Y4           0.04472
           Z4           0.00000   0.23116
           X5          -0.01453   0.00858   0.06841
           Y5           0.00133  -0.00219  -0.03818   0.22866
           Z5           0.02150  -0.01244   0.03144  -0.11578   0.12235
           X6           0.01453   0.00858   0.00321   0.00226   0.00306
           Y6           0.00133   0.00219  -0.00226  -0.01973  -0.01414
           Z6          -0.02150  -0.01244   0.00306   0.01414   0.00980
                          X6        Y6        Z6
           X6           0.06841
           Y6           0.03818   0.22866
           Z6           0.03144   0.11578   0.12235
 ITU=  0  0  0  0
     Eigenvalues ---    0.01273   0.05012   0.08337   0.09504   0.12084
     Eigenvalues ---    0.12193   0.17584   0.34050   0.65212   0.70416
     Eigenvalues ---    0.73606   0.91517
 Eigenvectors required to have negative eigenvalues:
                          Y1        Y2        Y4        Z5        Z6
   1                    0.83590  -0.31115  -0.23434   0.22308  -0.22308
                          Y5        Y6        X5        X6        Y3
   1                    0.15377   0.15377   0.03590  -0.03590  -0.01185
 RFO step:  Lambda0=1.273500072D-02 Lambda=-1.13858972D-07.
 ClnCor:  largest displacement from symmetrization is 6.55D-08 for atom     1.
 Linear search not attempted -- option 19 set.
 ClnCor:  largest displacement from symmetrization is 9.93D-16 for atom     6.
 B after Tr=     0.000022   -0.000000    0.000046
         Rot=    1.000000    0.000000   -0.000006    0.000000 Ang=  -0.00 deg.
 Variable       Old X    -DE/DX   Delta X   Delta X   Delta X     New X
                                 (Linear)    (Quad)   (Total)
    X1       -0.10674  -0.00003   0.00000  -0.00048  -0.00045  -0.10719
    Y1       -0.00000   0.00000   0.00000  -0.00000  -0.00000  -0.00000
    Z1        0.01893  -0.00021   0.00000  -0.00036  -0.00032   0.01861
    X2       -0.03281   0.00006   0.00000   0.00011   0.00015  -0.03266
    Y2        0.00000   0.00000   0.00000   0.00000   0.00000   0.00000
    Z2        1.83988   0.00021   0.00000   0.00008   0.00013   1.84002
    X3        2.55303  -0.00001   0.00000   0.00007   0.00012   2.55315
    Y3       -0.00000   0.00000   0.00000  -0.00000   0.00000  -0.00000
    Z3        2.56129  -0.00001   0.00000  -0.00002  -0.00001   2.56128
    X4        3.85844  -0.00001   0.00000   0.00017   0.00020   3.85864
    Y4       -0.00000   0.00000   0.00000   0.00000  -0.00000  -0.00000
    Z4        0.93136   0.00001   0.00000   0.00011   0.00011   0.93147
    X5        2.98318  -0.00000   0.00000  -0.00008  -0.00001   2.98317
    Y5       -1.68860   0.00000   0.00000  -0.00000  -0.00000  -1.68860
    Z5        3.71541   0.00000   0.00000   0.00003   0.00004   3.71545
    X6        2.98318  -0.00000   0.00000  -0.00008  -0.00001   2.98317
    Y6        1.68860  -0.00000   0.00000   0.00000   0.00000   1.68860
    Z6        3.71541   0.00000   0.00000   0.00003   0.00004   3.71545
         Item               Value     Threshold  Converged?
 Maximum Force            0.000212     0.000450     YES
 RMS     Force            0.000071     0.000300     YES
 Maximum Displacement     0.000453     0.001800     YES
 RMS     Displacement     0.000152     0.001200     YES
 Predicted change in Energy=-5.703374D-08
 Optimization completed.
    -- Stationary point found.
 GradGradGradGradGradGradGradGradGradGradGradGradGradGradGradGradGradGrad

                          Input orientation:                          
 ---------------------------------------------------------------------
 Center     Atomic      Atomic             Coordinates (Angstroms)
 Number     Number       Type             X           Y           Z
 ---------------------------------------------------------------------
      1          1           0       -0.056484   -0.000000    0.010017
      2          8           0       -0.017362    0.000000    0.973625
      3          6           0        1.351004   -0.000000    1.355377
      4          1           0        2.041799   -0.000000    0.492854
      5          1           0        1.578630   -0.893569    1.966108
      6          1           0        1.578630    0.893569    1.966108
 ---------------------------------------------------------------------
                    Distance matrix (angstroms):
                    1          2          3          4          5
     1  H    0.000000
     2  O    0.964402   0.000000
     3  C    1.947053   1.420620   0.000000
     4  H    2.153119   2.114541   1.105053   0.000000
     5  H    2.701547   2.081028   1.106016   1.784228   0.000000
     6  H    2.701547   2.081028   1.106016   1.784228   1.787138
                    6
     6  H    0.000000
 Stoichiometry    CH4O
 Framework group  CS[SG(CH2O),X(H2)]
 Deg. of freedom     8
 Full point group                 CS      NOp   2
 Largest Abelian subgroup         CS      NOp   2
 Largest concise Abelian subgroup CS      NOp   2
                         Standard orientation:                         
 ---------------------------------------------------------------------
 Center     Atomic      Atomic             Coordinates (Angstroms)
 Number     Number       Type             X           Y           Z
 ---------------------------------------------------------------------
      1          1           0        0.868769   -1.057142    0.000000
      2          8           0       -0.048882   -0.760517   -0.000000
      3          6           0       -0.048882    0.660103    0.000000
      4          1           0        0.967546    1.093710    0.000000
      5          1           0       -0.575982    1.043473    0.893569
      6          1           0       -0.575982    1.043473   -0.893569
 ---------------------------------------------------------------------
 Rotational constants (GHZ):    126.8260998     24.6190977     23.7335211

 **********************************************************************

            Population analysis using the SCF density.

 **********************************************************************

 Orbital symmetries:
       Occupied  (A') (A') (A') (A') (A') (A") (A') (A') (A")
       Virtual   (A') (A') (A') (A") (A') (A') (A") (A') (A') (A")
                 (A') (A') (A') (A") (A') (A') (A") (A') (A") (A")
                 (A') (A") (A') (A') (A") (A') (A') (A') (A") (A')
                 (A') (A") (A') (A') (A") (A") (A') (A') (A')
 The electronic state is 1-A'.
 Alpha  occ. eigenvalues --  -19.12802 -10.22708  -1.00914  -0.67551  -0.50083
 Alpha  occ. eigenvalues --   -0.42923  -0.41856  -0.32723  -0.26220
 Alpha virt. eigenvalues --    0.05131   0.09084   0.13454   0.14060   0.20122
 Alpha virt. eigenvalues --    0.44572   0.45142   0.48677   0.59471   0.62396
 Alpha virt. eigenvalues --    0.63445   0.64963   0.87926   0.89498   0.95859
 Alpha virt. eigenvalues --    1.02134   1.06333   1.16185   1.36320   1.41181
 Alpha virt. eigenvalues --    1.41333   1.59202   1.60931   1.62428   1.64158
 Alpha virt. eigenvalues --    1.76055   1.80763   2.03312   2.06197   2.09074
 Alpha virt. eigenvalues --    2.14746   2.37986   2.38983   2.42200   2.94151
 Alpha virt. eigenvalues --    3.00782   3.05632   3.20838   3.67605
          Condensed to atoms (all electrons):
               1          2          3          4          5          6
     1  H    0.565117   0.349974  -0.046090  -0.019547   0.006046   0.006046
     2  O    0.349974   7.654016   0.368493  -0.023621  -0.034302  -0.034302
     3  C   -0.046090   0.368493   4.408540   0.391719   0.391491   0.391491
     4  H   -0.019547  -0.023621   0.391719   0.713134  -0.035188  -0.035188
     5  H    0.006046  -0.034302   0.391491  -0.035188   0.703255  -0.050680
     6  H    0.006046  -0.034302   0.391491  -0.035188  -0.050680   0.703255
 Mulliken charges:
               1
     1  H    0.138454
     2  O   -0.280257
     3  C    0.094355
     4  H    0.008691
     5  H    0.019378
     6  H    0.019378
 Sum of Mulliken charges =   0.00000
 Mulliken charges with hydrogens summed into heavy atoms:
               1
     2  O   -0.141803
     3  C    0.141803
 Electronic spatial extent (au):  <R**2>=             84.5034
 Charge=             -0.0000 electrons
 Dipole moment (field-independent basis, Debye):
    X=              1.4648    Y=              0.7902    Z=             -0.0000  Tot=              1.6643
 Quadrupole moment (field-independent basis, Debye-Ang):
   XX=            -11.7261   YY=            -12.9854   ZZ=            -13.4530
   XY=             -1.8724   XZ=              0.0000   YZ=             -0.0000
 Traceless Quadrupole moment (field-independent basis, Debye-Ang):
   XX=              0.9954   YY=             -0.2639   ZZ=             -0.7315
   XY=             -1.8724   XZ=              0.0000   YZ=             -0.0000
 Octapole moment (field-independent basis, Debye-Ang**2):
  XXX=              2.1246  YYY=             -4.3581  ZZZ=             -0.0000  XYY=              2.2696
  XXY=             -2.5080  XXZ=             -0.0000  XZZ=             -0.1513  YZZ=             -0.7921
  YYZ=             -0.0000  XYZ=             -0.0000
 Hexadecapole moment (field-independent basis, Debye-Ang**3):
 XXXX=            -19.7718 YYYY=            -61.1684 ZZZZ=            -19.0727 XXXY=              0.4635
 XXXZ=              0.0000 YYYX=             -0.6068 YYYZ=             -0.0000 ZZZX=              0.0000
 ZZZY=              0.0000 XXYY=            -12.2985 XXZZ=             -6.6358 YYZZ=            -13.7665
 XXYZ=             -0.0000 YYXZ=             -0.0000 ZZXY=             -0.0272
 N-N= 4.011235695842D+01 E-N=-3.516605544210D+02  KE= 1.149676550131D+02
 Symmetry A'   KE= 1.083456878848D+02
 Symmetry A"   KE= 6.621967128274D+00
 1\1\GINC-B451\FTS\RB3LYP\CC-pVDZ\C1H4O1\KMOORE\27-Jan-2019\0\\#B3LYP/c
 c-pVDZ Integral(Grid=SuperFineGrid) Opt=(ts,calcfc,noeig,Cartesian) Fr
 eq\\Optimization\\0,1\H,-0.0564838532,0.,0.0100169067\O,-0.017362347,0
 .,0.9736249969\C,1.3510044012,0.,1.3553768552\H,2.0417986538,0.,0.4928
 543453\H,1.5786295726,-0.8935688797,1.966108448\H,1.5786295726,0.89356
 88797,1.966108448\\Version=ES64L-G09RevE.01\State=1-A'\HF=-115.7206802
 \RMSD=4.923e-09\RMSF=7.128e-05\Dipole=0.4543119,0.,-0.4715412\Quadrupo
 le=-0.8492568,-0.5438676,1.3931244,0.,0.9487066,0.\PG=CS [SG(C1H2O1),X
 (H2)]\\@


 E PUR SI MUOVE    -- GALILEO GALILEI
 Job cpu time:       0 days  0 hours  2 minutes  7.0 seconds.
 File lengths (MBytes):  RWF=      5 Int=      0 D2E=      0 Chk=      1 Scr=      1
 Normal termination of Gaussian 09 at Sun Jan 27 13:20:05 2019.
 Link1:  Proceeding to internal job step number  2.
 -------------------------------------------------------------------
 #N Geom=AllCheck Guess=TCheck SCRF=Check GenChk RB3LYP/CC-pVDZ Freq
 -------------------------------------------------------------------
 1/5=1,10=4,11=1,29=7,30=1,38=1,40=1/1,3;
 2/12=2,40=1/2;
 3/5=16,11=2,14=-4,16=1,25=1,30=1,70=2,71=2,74=-5,75=-7,116=1,140=1/1,2,3;
 4/5=101/1;
 5/5=2,38=6,98=1/2;
 8/6=4,10=90,11=11/1;
 11/6=1,8=1,9=11,15=111,16=1/1,2,10;
 10/6=1/2;
 6/7=2,8=2,9=2,10=2,18=1,28=1/1;
 7/8=1,10=1,25=1/1,2,3,16;
 1/5=1,10=4,11=1,30=1/3;
 99//99;
 Structure from the checkpoint file:  "/scratch/kmoore/Gau-117854.chk"
 ------------
 Optimization
 ------------
 Charge =  0 Multiplicity = 1
 No Z-Matrix found in file; cartesian coordinates used.
  H                                                -0.056483853212     -0.000000000000      0.010016906683
  O                                                -0.017362346966      0.000000000000      0.973624996918
  C                                                 1.351004401206     -0.000000000000      1.355376855193
  H                                                 2.041798653771     -0.000000000000      0.492854345286
  H                                                 1.578629572600     -0.893568879676      1.966108447960
  H                                                 1.578629572600      0.893568879676      1.966108447960
 Recover connectivity data from disk.

 GradGradGradGradGradGradGradGradGradGradGradGradGradGradGradGradGradGrad
 Berny optimization.
 Initialization pass.
 Trust Radius=3.00D-01 FncErr=1.00D-07 GrdErr=1.00D-07
 Number of steps in this run=      2 maximum allowed number of steps=      2.
 Search for a saddle point of order  1.
 GradGradGradGradGradGradGradGradGradGradGradGradGradGradGradGradGradGrad

                          Input orientation:                          
 ---------------------------------------------------------------------
 Center     Atomic      Atomic             Coordinates (Angstroms)
 Number     Number       Type             X           Y           Z
 ---------------------------------------------------------------------
      1          1           0       -0.056484   -0.000000    0.010017
      2          8           0       -0.017362    0.000000    0.973625
      3          6           0        1.351004   -0.000000    1.355377
      4          1           0        2.041799   -0.000000    0.492854
      5          1           0        1.578630   -0.893569    1.966108
      6          1           0        1.578630    0.893569    1.966108
 ---------------------------------------------------------------------
                    Distance matrix (angstroms):
                    1          2          3          4          5
     1  H    0.000000
     2  O    0.964402   0.000000
     3  C    1.947053   1.420620   0.000000
     4  H    2.153119   2.114541   1.105053   0.000000
     5  H    2.701547   2.081028   1.106016   1.784228   0.000000
     6  H    2.701547   2.081028   1.106016   1.784228   1.787138
                    6
     6  H    0.000000
 Stoichiometry    CH4O
 Framework group  CS[SG(CH2O),X(H2)]
 Deg. of freedom     8
 Full point group                 CS      NOp   2
 Largest Abelian subgroup         CS      NOp   2
 Largest concise Abelian subgroup CS      NOp   2
                         Standard orientation:                         
 ---------------------------------------------------------------------
 Center     Atomic      Atomic             Coordinates (Angstroms)
 Number     Number       Type             X           Y           Z
 ---------------------------------------------------------------------
      1          1           0        0.868769   -1.057142    0.000000
      2          8           0       -0.048882   -0.760517    0.000000
      3          6           0       -0.048882    0.660103    0.000000
      4          1           0        0.967546    1.093710    0.000000
      5          1           0       -0.575982    1.043473    0.893569
      6          1           0       -0.575982    1.043473   -0.893569
 ---------------------------------------------------------------------
 Rotational constants (GHZ):    126.8260998     24.6190977     23.7335211
 Standard basis: CC-pVDZ (5D, 7F)
 There are    35 symmetry adapted cartesian basis functions of A'  symmetry.
 There are    15 symmetry adapted cartesian basis functions of A"  symmetry.
 There are    33 symmetry adapted basis functions of A'  symmetry.
 There are    15 symmetry adapted basis functions of A"  symmetry.
    48 basis functions,    94 primitive gaussians,    50 cartesian basis functions
     9 alpha electrons        9 beta electrons
       nuclear repulsion energy        40.1123569584 Hartrees.
 NAtoms=    6 NActive=    6 NUniq=    5 SFac= 1.44D+00 NAtFMM=   60 NAOKFM=F Big=F
 Integral buffers will be    131072 words long.
 Raffenetti 2 integral format.
 Two-electron integral symmetry is turned on.
 One-electron integrals computed using PRISM.
 NBasis=    48 RedAO= T EigKep=  2.28D-02  NBF=    33    15
 NBsUse=    48 1.00D-06 EigRej= -1.00D+00 NBFU=    33    15
 Initial guess from the checkpoint file:  "/scratch/kmoore/Gau-117854.chk"
 B after Tr=    -0.000000    0.000000    0.000000
         Rot=    1.000000   -0.000000    0.000000   -0.000000 Ang=   0.00 deg.
 Initial guess orbital symmetries:
       Occupied  (A') (A') (A') (A') (A') (A") (A') (A') (A")
       Virtual   (A') (A') (A') (A") (A') (A') (A") (A') (A') (A")
                 (A') (A') (A') (A") (A') (A') (A") (A') (A") (A")
                 (A') (A") (A') (A') (A") (A') (A') (A') (A") (A')
                 (A') (A") (A') (A') (A") (A") (A') (A') (A')
 Keep R1 ints in memory in symmetry-blocked form, NReq=1597446.
 Requested convergence on RMS density matrix=1.00D-08 within 128 cycles.
 Requested convergence on MAX density matrix=1.00D-06.
 Requested convergence on             energy=1.00D-06.
 No special actions if energy rises.
 SCF Done:  E(RB3LYP) =  -115.720680249     A.U. after    1 cycles
            NFock=  1  Conv=0.72D-09     -V/T= 2.0065
 DoSCS=F DFT=T ScalE2(SS,OS)=  1.000000  1.000000
 Range of M.O.s used for correlation:     1    48
 NBasis=    48 NAE=     9 NBE=     9 NFC=     0 NFV=     0
 NROrb=     48 NOA=     9 NOB=     9 NVA=    39 NVB=    39
 Symmetrizing basis deriv contribution to polar:
 IMax=3 JMax=2 DiffMx= 0.00D+00
 G2DrvN: will do     7 centers at a time, making    1 passes.
 Calling FoFCou, ICntrl=  3107 FMM=F I1Cent=   0 AccDes= 0.00D+00.
 End of G2Drv F.D. properties file   721 does not exist.
 End of G2Drv F.D. properties file   722 does not exist.
 End of G2Drv F.D. properties file   788 does not exist.
          IDoAtm=111111
          Differentiating once with respect to electric field.
                with respect to dipole field.
          Differentiating once with respect to nuclear coordinates.
 Keep R1 ints in memory in symmetry-blocked form, NReq=1567694.
          There are    18 degrees of freedom in the 1st order CPHF.  IDoFFX=4 NUNeed=    18.
     18 vectors produced by pass  0 Test12= 1.95D-15 5.56D-09 XBig12= 9.07D+00 1.36D+00.
 AX will form    18 AO Fock derivatives at one time.
     18 vectors produced by pass  1 Test12= 1.95D-15 5.56D-09 XBig12= 4.72D-01 2.13D-01.
     18 vectors produced by pass  2 Test12= 1.95D-15 5.56D-09 XBig12= 7.81D-03 2.65D-02.
     18 vectors produced by pass  3 Test12= 1.95D-15 5.56D-09 XBig12= 8.58D-06 1.01D-03.
     18 vectors produced by pass  4 Test12= 1.95D-15 5.56D-09 XBig12= 6.12D-09 1.53D-05.
      6 vectors produced by pass  5 Test12= 1.95D-15 5.56D-09 XBig12= 3.06D-12 3.83D-07.
      1 vectors produced by pass  6 Test12= 1.95D-15 5.56D-09 XBig12= 1.06D-15 8.81D-09.
 InvSVY:  IOpt=1 It=  1 EMax= 8.88D-16
 Solved reduced A of dimension    97 with    18 vectors.
 Isotropic polarizability for W=    0.000000       16.41 Bohr**3.
 End of Minotr F.D. properties file   721 does not exist.
 End of Minotr F.D. properties file   722 does not exist.
 End of Minotr F.D. properties file   788 does not exist.

 **********************************************************************

            Population analysis using the SCF density.

 **********************************************************************

 Orbital symmetries:
       Occupied  (A') (A') (A') (A') (A') (A") (A') (A') (A")
       Virtual   (A') (A') (A') (A") (A') (A') (A") (A') (A') (A")
                 (A') (A') (A') (A") (A') (A') (A") (A') (A") (A")
                 (A') (A") (A') (A') (A") (A') (A') (A') (A") (A')
                 (A') (A") (A') (A') (A") (A") (A') (A') (A')
 The electronic state is 1-A'.
 Alpha  occ. eigenvalues --  -19.12802 -10.22708  -1.00914  -0.67551  -0.50083
 Alpha  occ. eigenvalues --   -0.42923  -0.41856  -0.32723  -0.26220
 Alpha virt. eigenvalues --    0.05131   0.09084   0.13454   0.14060   0.20122
 Alpha virt. eigenvalues --    0.44572   0.45142   0.48677   0.59471   0.62396
 Alpha virt. eigenvalues --    0.63445   0.64963   0.87926   0.89498   0.95859
 Alpha virt. eigenvalues --    1.02134   1.06333   1.16185   1.36320   1.41181
 Alpha virt. eigenvalues --    1.41333   1.59202   1.60931   1.62428   1.64158
 Alpha virt. eigenvalues --    1.76055   1.80763   2.03312   2.06197   2.09074
 Alpha virt. eigenvalues --    2.14746   2.37986   2.38983   2.42200   2.94151
 Alpha virt. eigenvalues --    3.00782   3.05632   3.20838   3.67605
          Condensed to atoms (all electrons):
               1          2          3          4          5          6
     1  H    0.565117   0.349974  -0.046090  -0.019547   0.006046   0.006046
     2  O    0.349974   7.654016   0.368493  -0.023621  -0.034302  -0.034302
     3  C   -0.046090   0.368493   4.408540   0.391719   0.391491   0.391491
     4  H   -0.019547  -0.023621   0.391719   0.713134  -0.035188  -0.035188
     5  H    0.006046  -0.034302   0.391491  -0.035188   0.703255  -0.050680
     6  H    0.006046  -0.034302   0.391491  -0.035188  -0.050680   0.703255
 Mulliken charges:
               1
     1  H    0.138454
     2  O   -0.280257
     3  C    0.094355
     4  H    0.008691
     5  H    0.019378
     6  H    0.019378
 Sum of Mulliken charges =  -0.00000
 Mulliken charges with hydrogens summed into heavy atoms:
               1
     2  O   -0.141803
     3  C    0.141803
 APT charges:
               1
     1  H    0.230399
     2  O   -0.553231
     3  C    0.512267
     4  H   -0.060767
     5  H   -0.064334
     6  H   -0.064334
 Sum of APT charges =   0.00000
 APT charges with hydrogens summed into heavy atoms:
               1
     2  O   -0.322833
     3  C    0.322833
 Electronic spatial extent (au):  <R**2>=             84.5034
 Charge=             -0.0000 electrons
 Dipole moment (field-independent basis, Debye):
    X=              1.4648    Y=              0.7902    Z=             -0.0000  Tot=              1.6643
 Quadrupole moment (field-independent basis, Debye-Ang):
   XX=            -11.7261   YY=            -12.9854   ZZ=            -13.4530
   XY=             -1.8724   XZ=              0.0000   YZ=              0.0000
 Traceless Quadrupole moment (field-independent basis, Debye-Ang):
   XX=              0.9954   YY=             -0.2639   ZZ=             -0.7315
   XY=             -1.8724   XZ=              0.0000   YZ=              0.0000
 Octapole moment (field-independent basis, Debye-Ang**2):
  XXX=              2.1246  YYY=             -4.3581  ZZZ=              0.0000  XYY=              2.2696
  XXY=             -2.5080  XXZ=             -0.0000  XZZ=             -0.1513  YZZ=             -0.7921
  YYZ=              0.0000  XYZ=              0.0000
 Hexadecapole moment (field-independent basis, Debye-Ang**3):
 XXXX=            -19.7718 YYYY=            -61.1684 ZZZZ=            -19.0727 XXXY=              0.4635
 XXXZ=              0.0000 YYYX=             -0.6068 YYYZ=              0.0000 ZZZX=              0.0000
 ZZZY=              0.0000 XXYY=            -12.2985 XXZZ=             -6.6358 YYZZ=            -13.7665
 XXYZ=             -0.0000 YYXZ=              0.0000 ZZXY=             -0.0272
 N-N= 4.011235695842D+01 E-N=-3.516605542500D+02  KE= 1.149676549227D+02
 Symmetry A'   KE= 1.083456878241D+02
 Symmetry A"   KE= 6.621967098596D+00
  Exact polarizability:  16.783  -1.446  17.888   0.000   0.000  14.570
 Approx polarizability:  21.360  -1.290  22.264  -0.000   0.000  17.645
 Calling FoFJK, ICntrl=    100127 FMM=F ISym2X=1 I1Cent= 0 IOpClX= 0 NMat=1 NMatS=1 NMatT=0.
 Full mass-weighted force constant matrix:
 Low frequencies --- -341.5699  -24.4609  -10.2237   -0.0011   -0.0006    0.0015
 Low frequencies ---    6.1369 1055.0128 1077.0306
 ******    1 imaginary frequencies (negative Signs) ****** 
 Diagonal vibrational polarizability:
        0.2818370       3.4483850      16.8006323
 Harmonic frequencies (cm**-1), IR intensities (KM/Mole), Raman scattering
 activities (A**4/AMU), depolarization ratios for plane and unpolarized
 incident light, reduced masses (AMU), force constants (mDyne/A),
 and normal coordinates:
                      1                      2                      3
                     A"                     A'                     A'
 Frequencies --   -341.5493              1055.0127              1077.0305
 Red. masses --      1.0897                 1.7808                 2.0814
 Frc consts  --      0.0749                 1.1678                 1.4225
 IR Inten    --     71.9268               100.3866                16.1780
  Atom  AN      X      Y      Z        X      Y      Z        X      Y      Z
     1   1     0.00  -0.00   0.88    -0.25  -0.56   0.00    -0.11  -0.48   0.00
     2   8     0.00  -0.00  -0.07    -0.00   0.17  -0.00    -0.02  -0.17   0.00
     3   6    -0.00   0.00   0.02     0.07  -0.15   0.00     0.08   0.23  -0.00
     4   1     0.00  -0.00  -0.27    -0.16   0.40  -0.00    -0.13   0.72   0.00
     5   1     0.22   0.05   0.14    -0.21  -0.38  -0.06    -0.22  -0.14  -0.04
     6   1    -0.22  -0.05   0.14    -0.21  -0.38   0.06    -0.22  -0.14   0.04
                      4                      5                      6
                     A"                     A'                     A"
 Frequencies --   1174.9102              1358.4600              1456.5787
 Red. masses --      1.2536                 1.2706                 1.0425
 Frc consts  --      1.0196                 1.3815                 1.3032
 IR Inten    --      0.2860                24.8255                 1.3190
  Atom  AN      X      Y      Z        X      Y      Z        X      Y      Z
     1   1     0.00   0.00  -0.14     0.20   0.83   0.00    -0.00  -0.00  -0.02
     2   8    -0.00  -0.00  -0.05    -0.08  -0.01   0.00     0.00   0.00  -0.01
     3   6     0.00   0.00   0.14     0.12  -0.04  -0.00     0.00   0.00  -0.06
     4   1    -0.00   0.00  -0.30    -0.02   0.30   0.00     0.00  -0.00   0.71
     5   1    -0.13   0.62  -0.20    -0.16  -0.22  -0.09     0.36   0.33   0.05
     6   1     0.13  -0.62  -0.20    -0.16  -0.22   0.09    -0.36  -0.33   0.05
                      7                      8                      9
                     A'                     A'                     A'
 Frequencies --   1467.4775              1490.5514              2988.6632
 Red. masses --      1.1352                 1.0449                 1.0309
 Frc consts  --      1.4404                 1.3678                 5.4254
 IR Inten    --     10.8863                 3.9219                55.8264
  Atom  AN      X      Y      Z        X      Y      Z        X      Y      Z
     1   1     0.01   0.02  -0.00     0.01   0.07  -0.00     0.00   0.00   0.00
     2   8    -0.01  -0.02  -0.00    -0.01   0.01   0.00    -0.00  -0.00   0.00
     3   6    -0.01  -0.11  -0.00    -0.05   0.03   0.00     0.00  -0.05  -0.00
     4   1    -0.29   0.63   0.00    -0.08   0.17  -0.00     0.51   0.20  -0.00
     5   1     0.27   0.42  -0.05     0.43  -0.35   0.41    -0.28   0.19   0.48
     6   1     0.27   0.42   0.05     0.43  -0.35  -0.41    -0.28   0.19  -0.48
                     10                     11                     12
                     A"                     A'                     A'
 Frequencies --   3044.3489              3060.3362              3827.6256
 Red. masses --      1.1055                 1.1054                 1.0675
 Frc consts  --      6.0367                 6.1000                 9.2144
 IR Inten    --     63.9276                54.9297                30.5786
  Atom  AN      X      Y      Z        X      Y      Z        X      Y      Z
     1   1    -0.00  -0.00  -0.01    -0.02   0.00   0.00     0.95  -0.31  -0.00
     2   8     0.00   0.00   0.00     0.00   0.00  -0.00    -0.06   0.02   0.00
     3   6    -0.00   0.00  -0.09    -0.09  -0.01   0.00    -0.00  -0.00  -0.00
     4   1     0.00   0.00  -0.02     0.77   0.31   0.00     0.01  -0.00   0.00
     5   1    -0.35   0.23   0.57     0.16  -0.13  -0.33     0.00  -0.00  -0.01
     6   1     0.35  -0.23   0.57     0.16  -0.13   0.33     0.00  -0.00   0.01

 -------------------
 - Thermochemistry -
 -------------------
 Temperature   298.150 Kelvin.  Pressure   1.00000 Atm.
 Atom     1 has atomic number  1 and mass   1.00783
 Atom     2 has atomic number  8 and mass  15.99491
 Atom     3 has atomic number  6 and mass  12.00000
 Atom     4 has atomic number  1 and mass   1.00783
 Atom     5 has atomic number  1 and mass   1.00783
 Atom     6 has atomic number  1 and mass   1.00783
 Molecular mass:    32.02621 amu.
 Principal axes and moments of inertia in atomic units:
                           1         2         3
     Eigenvalues --    14.23005  73.30655  76.04186
           X           -0.05495   0.99849   0.00000
           Y            0.99849   0.05495   0.00000
           Z           -0.00000   0.00000   1.00000
 This molecule is an asymmetric top.
 Rotational symmetry number  1.
 Rotational temperatures (Kelvin)      6.08669     1.18153     1.13903
 Rotational constants (GHZ):         126.82610    24.61910    23.73352
    1 imaginary frequencies ignored.
 Zero-point vibrational energy     131595.2 (Joules/Mol)
                                   31.45200 (Kcal/Mol)
 Vibrational temperatures:   1517.93  1549.60  1690.43  1954.52  2095.69
          (Kelvin)           2111.37  2144.57  4300.01  4380.13  4403.14
                             5507.09
 
 Zero-point correction=                           0.050122 (Hartree/Particle)
 Thermal correction to Energy=                    0.053056
 Thermal correction to Enthalpy=                  0.054000
 Thermal correction to Gibbs Free Energy=         0.027589
 Sum of electronic and zero-point Energies=           -115.670558
 Sum of electronic and thermal Energies=              -115.667625
 Sum of electronic and thermal Enthalpies=            -115.666681
 Sum of electronic and thermal Free Energies=         -115.693092
 
                     E (Thermal)             CV                S
                      KCal/Mol        Cal/Mol-Kelvin    Cal/Mol-Kelvin
 Total                   33.293              7.175             55.587
 Electronic               0.000              0.000              0.000
 Translational            0.889              2.981             36.324
 Rotational               0.889              2.981             19.012
 Vibrational             31.515              1.214              0.251
                       Q            Log10(Q)             Ln(Q)
 Total Bot       0.204219D-12        -12.689904        -29.219585
 Total V=0       0.231497D+11         10.364545         23.865247
 Vib (Bot)       0.899155D-23        -23.046165        -53.065757
 Vib (V=0)       0.101926D+01          0.008284          0.019075
 Electronic      0.100000D+01          0.000000          0.000000
 Translational   0.712383D+07          6.852714         15.778956
 Rotational      0.318821D+04          3.503547          8.067216
 ***** Axes restored to original set *****
 -------------------------------------------------------------------
 Center     Atomic                   Forces (Hartrees/Bohr)
 Number     Number              X              Y              Z
 -------------------------------------------------------------------
      1        1          -0.000028955    0.000000000   -0.000211524
      2        8           0.000055530    0.000000000    0.000206155
      3        6          -0.000005826   -0.000000000   -0.000005411
      4        1          -0.000010793    0.000000000    0.000006943
      5        1          -0.000004978    0.000000012    0.000001918
      6        1          -0.000004978   -0.000000012    0.000001918
 -------------------------------------------------------------------
 Cartesian Forces:  Max     0.000211524 RMS     0.000071278

 GradGradGradGradGradGradGradGradGradGradGradGradGradGradGradGradGradGrad
 Berny optimization.
 Search for a saddle point.
 Step number   1 out of a maximum of    2
 All quantities printed in internal units (Hartrees-Bohrs-Radians)
 Swapping is turned off.
 Second derivative matrix not updated -- analytic derivatives used.
 The second derivative matrix:
                          X1        Y1        Z1        X2        Y2
           X1           0.05618
           Y1          -0.00000  -0.00238
           Z1           0.02506  -0.00000   0.52446
           X2          -0.03797  -0.00000  -0.03750   0.34332
           Y2          -0.00000   0.00905   0.00000  -0.00000   0.02391
           Z2           0.02408   0.00000  -0.52025   0.08303  -0.00000
           X3          -0.01255   0.00000   0.01045  -0.23021   0.00000
           Y3           0.00000  -0.00639   0.00000   0.00000  -0.05538
           Z3          -0.04672   0.00000  -0.00997  -0.01222  -0.00000
           X4           0.00265   0.00000   0.00310  -0.03493  -0.00000
           Y4          -0.00000   0.00190   0.00000  -0.00000   0.00048
           Z4           0.00047  -0.00000   0.00486  -0.01268   0.00000
           X5          -0.00415   0.00461  -0.00055  -0.02010   0.02244
           Y5          -0.00055  -0.00109  -0.00175   0.00558   0.01097
           Z5          -0.00144   0.00186   0.00045  -0.01032   0.00460
           X6          -0.00415  -0.00461  -0.00055  -0.02010  -0.02244
           Y6           0.00055  -0.00109   0.00175  -0.00558   0.01097
           Z6          -0.00144  -0.00186   0.00045  -0.01032  -0.00460
                          Z2        X3        Y3        Z3        X4
           Z2           0.62211
           X3          -0.07186   0.47898
           Y3          -0.00000  -0.00000   0.55245
           Z3          -0.10403  -0.02213  -0.00000   0.57959
           X4           0.01852  -0.13530  -0.00000   0.11385   0.15806
           Y4          -0.00000   0.00000  -0.04856   0.00000   0.00000
           Z4           0.01209   0.12346   0.00000  -0.21828  -0.12996
           X5          -0.02688  -0.05046   0.02765  -0.01639   0.00476
           Y5          -0.00071   0.03158  -0.22106   0.11383  -0.00073
           Z5          -0.00496  -0.01996   0.11101  -0.12365  -0.00276
           X6          -0.02688  -0.05046  -0.02765  -0.01639   0.00476
           Y6           0.00071  -0.03158  -0.22106  -0.11383   0.00073
           Z6          -0.00496  -0.01996  -0.11101  -0.12365  -0.00276
                          Y4        Z4        X5        Y5        Z5
           Y4           0.04335
           Z4          -0.00000   0.22731
           X5          -0.01525   0.00935   0.06670
           Y5           0.00141  -0.00162  -0.03766   0.23176
           Z5           0.02149  -0.01299   0.03162  -0.12436   0.13082
           X6           0.01525   0.00935   0.00325   0.00178   0.00286
           Y6           0.00141   0.00162  -0.00178  -0.02199  -0.01460
           Z6          -0.02149  -0.01299   0.00286   0.01460   0.01033
                          X6        Y6        Z6
           X6           0.06670
           Y6           0.03766   0.23176
           Z6           0.03162   0.12436   0.13082
 ITU=  0
     Eigenvalues ---   -0.00694   0.05096   0.08186   0.09314   0.11712
     Eigenvalues ---    0.12033   0.16665   0.33223   0.63613   0.71372
     Eigenvalues ---    0.74497   0.97252
 Eigenvectors required to have negative eigenvalues:
                          Y1        Y2        Y4        Z5        Z6
   1                    0.83631  -0.32786  -0.22697   0.21323  -0.21323
                          Y6        Y5        X6        X5        Y3
   1                    0.15907   0.15907   0.00418  -0.00418  -0.00006
 Angle between quadratic step and forces=  49.23 degrees.
 ClnCor:  largest displacement from symmetrization is 1.32D-14 for atom     1.
 Linear search not attempted -- option 19 set.
 ClnCor:  largest displacement from symmetrization is 9.93D-16 for atom     6.
 B after Tr=     0.000022   -0.000000    0.000036
         Rot=    1.000000    0.000000   -0.000004    0.000000 Ang=  -0.00 deg.
 Variable       Old X    -DE/DX   Delta X   Delta X   Delta X     New X
                                 (Linear)    (Quad)   (Total)
    X1       -0.10674  -0.00003   0.00000  -0.00033  -0.00031  -0.10705
    Y1       -0.00000   0.00000   0.00000  -0.00000  -0.00000  -0.00000
    Z1        0.01893  -0.00021   0.00000  -0.00032  -0.00028   0.01865
    X2       -0.03281   0.00006   0.00000   0.00010   0.00014  -0.03267
    Y2        0.00000   0.00000   0.00000  -0.00000   0.00000   0.00000
    Z2        1.83988   0.00021   0.00000   0.00006   0.00010   1.83999
    X3        2.55303  -0.00001   0.00000   0.00004   0.00008   2.55311
    Y3       -0.00000  -0.00000   0.00000  -0.00000   0.00000  -0.00000
    Z3        2.56129  -0.00001   0.00000   0.00000   0.00002   2.56131
    X4        3.85844  -0.00001   0.00000   0.00003   0.00006   3.85850
    Y4       -0.00000   0.00000   0.00000   0.00000  -0.00000  -0.00000
    Z4        0.93136   0.00001   0.00000   0.00005   0.00005   0.93141
    X5        2.98318  -0.00000   0.00000  -0.00004   0.00001   2.98319
    Y5       -1.68860   0.00000   0.00000   0.00000   0.00000  -1.68860
    Z5        3.71541   0.00000   0.00000   0.00004   0.00006   3.71546
    X6        2.98318  -0.00000   0.00000  -0.00004   0.00001   2.98319
    Y6        1.68860  -0.00000   0.00000  -0.00000  -0.00000   1.68860
    Z6        3.71541   0.00000   0.00000   0.00004   0.00006   3.71546
         Item               Value     Threshold  Converged?
 Maximum Force            0.000212     0.000450     YES
 RMS     Force            0.000071     0.000300     YES
 Maximum Displacement     0.000307     0.001800     YES
 RMS     Displacement     0.000111     0.001200     YES
 Predicted change in Energy=-4.803264D-08
 Optimization completed.
    -- Stationary point found.
 GradGradGradGradGradGradGradGradGradGradGradGradGradGradGradGradGradGrad

 1\1\GINC-B451\Freq\RB3LYP\CC-pVDZ\C1H4O1\KMOORE\27-Jan-2019\0\\#N Geom
 =AllCheck Guess=TCheck SCRF=Check GenChk RB3LYP/CC-pVDZ Freq\\Optimiza
 tion\\0,1\H,-0.0564838532,0.,0.0100169067\O,-0.017362347,0.,0.97362499
 69\C,1.3510044012,0.,1.3553768552\H,2.0417986538,0.,0.4928543453\H,1.5
 786295726,-0.8935688797,1.966108448\H,1.5786295726,0.8935688797,1.9661
 08448\\Version=ES64L-G09RevE.01\State=1-A'\HF=-115.7206802\RMSD=7.209e
 -10\RMSF=7.128e-05\ZeroPoint=0.050122\Thermal=0.0530555\Dipole=0.45431
 19,0.,-0.4715413\DipoleDeriv=0.2410711,0.,0.0475049,0.,0.2944022,0.,0.
 0163556,0.,0.1557227,-0.8416825,0.,-0.2623012,0.,-0.4599976,0.,-0.2102
 187,0.,-0.3580135,0.7750567,0.,0.2538287,0.,0.3647078,0.,0.206645,0.,0
 .3970366,-0.1176366,0.,0.0562099,0.,0.0571098,0.,0.1113162,0.,-0.12177
 53,-0.0284043,0.0247362,-0.0476211,0.0586637,-0.1281111,0.1188423,-0.0
 62049,0.0988657,-0.0364852,-0.0284043,-0.0247362,-0.0476211,-0.0586637
 ,-0.1281111,-0.1188423,-0.062049,-0.0988657,-0.0364852\Polar=17.059783
 9,0.,14.5700063,1.5227222,0.,17.6111913\PG=CS [SG(C1H2O1),X(H2)]\NImag
 =1\\0.05617580,0.,-0.00238334,0.02505567,0.,0.52445924,-0.03797176,0.,
 -0.03750315,0.34331633,0.,0.00905333,0.,0.,0.02390634,0.02407735,0.,-0
 .52024663,0.08303423,0.,0.62210594,-0.01254998,0.,0.01045251,-0.230210
 26,0.,-0.07186389,0.47897740,0.,-0.00639154,0.,0.,-0.05537918,0.,0.,0.
 55244835,-0.04672161,0.,-0.00997276,-0.01221545,0.,-0.10402583,-0.0221
 3195,0.,0.57958984,0.00264566,0.,0.00309732,-0.03493023,0.,0.01852212,
 -0.13529539,0.,0.11385365,0.15805770,0.,0.00189803,0.,0.,0.00048345,0.
 ,0.,-0.04855879,0.,0.,0.04335134,0.00046719,0.,0.00485755,-0.01267831,
 0.,0.01208835,0.12346121,0.,-0.21828351,-0.12995809,0.,0.22731062,-0.0
 0414986,0.00460719,-0.00055117,-0.02010204,0.02243708,-0.02688490,-0.0
 5046088,0.02764756,-0.01639232,0.00476113,-0.01524884,0.00935400,0.066
 70191,-0.00054900,-0.00108823,-0.00174638,0.00558276,0.01096803,-0.000
 70542,0.03158257,-0.22105942,0.11382660,-0.00073222,0.00141298,-0.0016
 1523,-0.03766355,0.23175639,-0.00143930,0.00186302,0.00045130,-0.01031
 866,0.00459700,-0.00496091,-0.01995894,0.11101310,-0.12365387,-0.00275
 750,0.02148684,-0.01298650,0.03161784,-0.12435975,0.13081749,-0.004149
 86,-0.00460719,-0.00055117,-0.02010204,-0.02243708,-0.02688490,-0.0504
 6088,-0.02764756,-0.01639232,0.00476113,0.01524884,0.00935400,0.003249
 74,0.00177944,0.00285656,0.06670191,0.00054900,-0.00108823,0.00174638,
 -0.00558276,0.01096803,0.00070542,-0.03158257,-0.22105942,-0.11382660,
 0.00073222,0.00141298,0.00161523,-0.00177944,-0.02198974,-0.01460019,0
 .03766355,0.23175639,-0.00143930,-0.00186302,0.00045130,-0.01031866,-0
 .00459700,-0.00496091,-0.01995894,-0.11101310,-0.12365387,-0.00275750,
 -0.02148684,-0.01298650,0.00285656,0.01460019,0.01033249,0.03161784,0.
 12435975,0.13081749\\0.00002896,0.,0.00021152,-0.00005553,0.,-0.000206
 16,0.00000583,0.,0.00000541,0.00001079,0.,-0.00000694,0.00000498,-0.00
 000001,-0.00000192,0.00000498,0.00000001,-0.00000192\\\@


 MAN IS A SINGULAR CREATURE.  HE HAS A SET OF GIFTS
 WHICH MAKE HIM UNIQUE AMONG THE ANIMALS: SO THAT, 
 UNLIKE THEM, HE IS NOT A FIGURE IN THE LANDSCAPE --
 HE IS A SHAPER OF THE LANDSCAPE.

                       -- JACOB BRONOWSKI
 Job cpu time:       0 days  0 hours  0 minutes 59.7 seconds.
 File lengths (MBytes):  RWF=      5 Int=      0 D2E=      0 Chk=      1 Scr=      1
 Normal termination of Gaussian 09 at Sun Jan 27 13:20:13 2019.
