 Entering Gaussian System, Link 0=g09
 Initial command:
 /soft/gaussian/09-e.01/g09/l1.exe "/scratch/kmoore/Gau-109915.inp" -scrdir="/scratch/kmoore"
 Entering Link 1 = /soft/gaussian/09-e.01/g09/l1.exe PID=    109916.
  
 Copyright (c) 1988,1990,1992,1993,1995,1998,2003,2009,2015,
            Gaussian, Inc.  All Rights Reserved.
  
 This is part of the Gaussian(R) 09 program.  It is based on
 the Gaussian(R) 03 system (copyright 2003, Gaussian, Inc.),
 the Gaussian(R) 98 system (copyright 1998, Gaussian, Inc.),
 the Gaussian(R) 94 system (copyright 1995, Gaussian, Inc.),
 the Gaussian 92(TM) system (copyright 1992, Gaussian, Inc.),
 the Gaussian 90(TM) system (copyright 1990, Gaussian, Inc.),
 the Gaussian 88(TM) system (copyright 1988, Gaussian, Inc.),
 the Gaussian 86(TM) system (copyright 1986, Carnegie Mellon
 University), and the Gaussian 82(TM) system (copyright 1983,
 Carnegie Mellon University). Gaussian is a federally registered
 trademark of Gaussian, Inc.
  
 This software contains proprietary and confidential information,
 including trade secrets, belonging to Gaussian, Inc.
  
 This software is provided under written license and may be
 used, copied, transmitted, or stored only in accord with that
 written license.
  
 The following legend is applicable only to US Government
 contracts under FAR:
  
                    RESTRICTED RIGHTS LEGEND
  
 Use, reproduction and disclosure by the US Government is
 subject to restrictions as set forth in subparagraphs (a)
 and (c) of the Commercial Computer Software - Restricted
 Rights clause in FAR 52.227-19.
  
 Gaussian, Inc.
 340 Quinnipiac St., Bldg. 40, Wallingford CT 06492
  
  
 ---------------------------------------------------------------
 Warning -- This program may not be used in any manner that
 competes with the business of Gaussian, Inc. or will provide
 assistance to any competitor of Gaussian, Inc.  The licensee
 of this program is prohibited from giving any competitor of
 Gaussian, Inc. access to this program.  By using this program,
 the user acknowledges that Gaussian, Inc. is engaged in the
 business of creating and licensing software in the field of
 computational chemistry and represents and warrants to the
 licensee that it is not a competitor of Gaussian, Inc. and that
 it will not use this program in any manner prohibited above.
 ---------------------------------------------------------------
  

 Cite this work as:
 Gaussian 09, Revision E.01,
 M. J. Frisch, G. W. Trucks, H. B. Schlegel, G. E. Scuseria, 
 M. A. Robb, J. R. Cheeseman, G. Scalmani, V. Barone, B. Mennucci, 
 G. A. Petersson, H. Nakatsuji, M. Caricato, X. Li, H. P. Hratchian, 
 A. F. Izmaylov, J. Bloino, G. Zheng, J. L. Sonnenberg, M. Hada, 
 M. Ehara, K. Toyota, R. Fukuda, J. Hasegawa, M. Ishida, T. Nakajima, 
 Y. Honda, O. Kitao, H. Nakai, T. Vreven, J. A. Montgomery, Jr., 
 J. E. Peralta, F. Ogliaro, M. Bearpark, J. J. Heyd, E. Brothers, 
 K. N. Kudin, V. N. Staroverov, T. Keith, R. Kobayashi, J. Normand, 
 K. Raghavachari, A. Rendell, J. C. Burant, S. S. Iyengar, J. Tomasi, 
 M. Cossi, N. Rega, J. M. Millam, M. Klene, J. E. Knox, J. B. Cross, 
 V. Bakken, C. Adamo, J. Jaramillo, R. Gomperts, R. E. Stratmann, 
 O. Yazyev, A. J. Austin, R. Cammi, C. Pomelli, J. W. Ochterski, 
 R. L. Martin, K. Morokuma, V. G. Zakrzewski, G. A. Voth, 
 P. Salvador, J. J. Dannenberg, S. Dapprich, A. D. Daniels, 
 O. Farkas, J. B. Foresman, J. V. Ortiz, J. Cioslowski, 
 and D. J. Fox, Gaussian, Inc., Wallingford CT, 2013.
 
 ******************************************
 Gaussian 09:  ES64L-G09RevE.01 30-Nov-2015
                27-Jan-2019 
 ******************************************
 %mem=30gb
 %nproc=1
 Will use up to    1 processors via shared memory.
 --------------
 # ROHF/cc-pVDZ
 --------------
 1/38=1/1;
 2/12=2,17=6,18=5,40=1/2;
 3/5=16,11=2,16=1,25=1,30=1,116=101/1,2,3;
 4//1;
 5/5=2,38=5/2;
 6/7=2,8=2,9=2,10=2,28=1/1;
 99/5=1,9=1/99;
 ------------
 Single Point
 ------------
 Symbolic Z-matrix:
 Charge =  0 Multiplicity = 2
 O                     0.        0.        0. 
 O                     0.        0.        1.31157 
 H                     0.94363   0.        1.57318 
 
                          Input orientation:                          
 ---------------------------------------------------------------------
 Center     Atomic      Atomic             Coordinates (Angstroms)
 Number     Number       Type             X           Y           Z
 ---------------------------------------------------------------------
      1          8           0        0.000000    0.000000    0.000000
      2          8           0        0.000000    0.000000    1.311565
      3          1           0        0.943625    0.000000    1.573176
 ---------------------------------------------------------------------
                    Distance matrix (angstroms):
                    1          2          3
     1  O    0.000000
     2  O    1.311565   0.000000
     3  H    1.834478   0.979218   0.000000
 Stoichiometry    HO2(2)
 Framework group  CS[SG(HO2)]
 Deg. of freedom     3
 Full point group                 CS      NOp   2
 Largest Abelian subgroup         CS      NOp   2
 Largest concise Abelian subgroup C1      NOp   1
                         Standard orientation:                         
 ---------------------------------------------------------------------
 Center     Atomic      Atomic             Coordinates (Angstroms)
 Number     Number       Type             X           Y           Z
 ---------------------------------------------------------------------
      1          8           0        0.055507    0.709747   -0.000000
      2          8           0        0.055507   -0.601818    0.000000
      3          1           0       -0.888118   -0.863429    0.000000
 ---------------------------------------------------------------------
 Rotational constants (GHZ):    617.8204555     34.5404242     32.7116191
 Standard basis: CC-pVDZ (5D, 7F)
 There are    26 symmetry adapted cartesian basis functions of A'  symmetry.
 There are     9 symmetry adapted cartesian basis functions of A"  symmetry.
 There are    24 symmetry adapted basis functions of A'  symmetry.
 There are     9 symmetry adapted basis functions of A"  symmetry.
    33 basis functions,    73 primitive gaussians,    35 cartesian basis functions
     9 alpha electrons        8 beta electrons
       nuclear repulsion energy        32.4530418823 Hartrees.
 NAtoms=    3 NActive=    3 NUniq=    3 SFac= 1.00D+00 NAtFMM=   60 NAOKFM=F Big=F
 Integral buffers will be    131072 words long.
 Raffenetti 2 integral format.
 Two-electron integral symmetry is turned on.
 One-electron integrals computed using PRISM.
 NBasis=    33 RedAO= T EigKep=  3.14D-02  NBF=    24     9
 NBsUse=    33 1.00D-06 EigRej= -1.00D+00 NBFU=    24     9
 ExpMin= 1.22D-01 ExpMax= 1.17D+04 ExpMxC= 4.01D+02 IAcc=1 IRadAn=         1 AccDes= 0.00D+00
 Harris functional with IExCor=  205 and IRadAn=       1 diagonalized for initial guess.
 HarFok:  IExCor=  205 AccDes= 0.00D+00 IRadAn=         1 IDoV= 1 UseB2=F ITyADJ=14
 ICtDFT=  3500011 ScaDFX=  1.000000  1.000000  1.000000  1.000000
 FoFCou: FMM=F IPFlag=           0 FMFlag=      100000 FMFlg1=           0
         NFxFlg=           0 DoJE=T BraDBF=F KetDBF=T FulRan=T
         wScrn=  0.000000 ICntrl=     500 IOpCl=  0 I1Cent=   200000004 NGrid=           0
         NMat0=    1 NMatS0=      1 NMatT0=    0 NMatD0=    1 NMtDS0=    0 NMtDT0=    0
 Petite list used in FoFCou.
 Initial guess orbital symmetries:
       Occupied  (A') (A') (A') (A') (A') (A') (A") (A') (A")
       Virtual   (A') (A') (A') (A') (A") (A') (A') (A") (A') (A')
                 (A") (A') (A') (A') (A") (A') (A") (A') (A') (A")
                 (A") (A') (A') (A')
 The electronic state of the initial guess is 2-A".
 Keep R1 and R2 ints in memory in symmetry-blocked form, NReq=1029083.
 Requested convergence on RMS density matrix=1.00D-08 within 128 cycles.
 Requested convergence on MAX density matrix=1.00D-06.
 Requested convergence on             energy=1.00D-06.
 No special actions if energy rises.
 SCF Done:  E(ROHF) =  -150.181930595     A.U. after   16 cycles
            NFock= 16  Conv=0.18D-08     -V/T= 1.9998
 <Sx>= 0.0000 <Sy>= 0.0000 <Sz>= 0.5000 <S**2>= 0.7500 S= 0.5000
 <L.S>= 0.000000000000E+00
 Annihilation of the first spin contaminant:
 S**2 before annihilation     0.7500,   after     0.7500

 **********************************************************************

            Population analysis using the SCF density.

 **********************************************************************

 Orbital symmetries:
       Occupied  (A') (A') (A') (A') (A') (A') (A") (A') (A")
       Virtual   (A') (A') (A') (A') (A") (A') (A') (A") (A') (A")
                 (A') (A') (A') (A') (A") (A') (A") (A') (A') (A")
                 (A") (A') (A') (A')
 The electronic state is 2-A".
 Alpha  occ. eigenvalues --  -20.65963 -20.65563  -1.54076  -1.13309  -0.75538
 Alpha  occ. eigenvalues --   -0.65341  -0.60708  -0.48980  -0.13592
 Alpha virt. eigenvalues --    0.17379   0.37673   0.77991   1.10195   1.12387
 Alpha virt. eigenvalues --    1.14543   1.16324   1.22455   1.26672   1.51945
 Alpha virt. eigenvalues --    1.53281   1.71139   2.01081   2.36124   2.47978
 Alpha virt. eigenvalues --    2.70905   2.85517   2.88014   2.95528   3.23003
 Alpha virt. eigenvalues --    3.52458   3.61869   3.89912   4.23633
          Condensed to atoms (all electrons):
               1          2          3
     1  O    8.014579   0.089722  -0.040221
     2  O    0.089722   7.706614   0.347003
     3  H   -0.040221   0.347003   0.485799
          Atomic-Atomic Spin Densities.
               1          2          3
     1  O    0.978558  -0.086168  -0.000478
     2  O   -0.086168   0.190548   0.001995
     3  H   -0.000478   0.001995   0.000198
 Mulliken charges and spin densities:
               1          2
     1  O   -0.064080   0.891912
     2  O   -0.143339   0.106374
     3  H    0.207420   0.001714
 Sum of Mulliken charges =  -0.00000   1.00000
 Mulliken charges and spin densities with hydrogens summed into heavy atoms:
               1          2
     1  O   -0.064080   0.891912
     2  O    0.064080   0.108088
 Electronic spatial extent (au):  <R**2>=             53.4233
 Charge=             -0.0000 electrons
 Dipole moment (field-independent basis, Debye):
    X=             -1.8377    Y=             -0.8978    Z=              0.0000  Tot=              2.0453
 Quadrupole moment (field-independent basis, Debye-Ang):
   XX=             -9.5228   YY=            -10.8389   ZZ=            -10.6146
   XY=              1.7303   XZ=             -0.0000   YZ=              0.0000
 Traceless Quadrupole moment (field-independent basis, Debye-Ang):
   XX=              0.8027   YY=             -0.5135   ZZ=             -0.2892
   XY=              1.7303   XZ=             -0.0000   YZ=              0.0000
 Octapole moment (field-independent basis, Debye-Ang**2):
  XXX=             -2.2811  YYY=             -1.3166  ZZZ=             -0.0000  XYY=             -1.8034
  XXY=             -1.8361  XXZ=              0.0000  XZZ=             -0.2064  YZZ=              0.4781
  YYZ=              0.0000  XYZ=              0.0000
 Hexadecapole moment (field-independent basis, Debye-Ang**3):
 XXXX=             -7.8248 YYYY=            -34.4245 ZZZZ=             -6.9328 XXXY=              0.4217
 XXXZ=             -0.0000 YYYX=              0.4909 YYYZ=              0.0000 ZZZX=              0.0000
 ZZZY=              0.0000 XXYY=             -6.8419 XXZZ=             -2.7555 YYZZ=             -7.2255
 XXYZ=              0.0000 YYXZ=             -0.0000 ZZXY=             -0.2861
 N-N= 3.245304188229D+01 E-N=-4.217986975756D+02  KE= 1.502101385152D+02
 Symmetry A'   KE= 1.428759420240D+02
 Symmetry A"   KE= 7.334196491275D+00
                          Isotropic Fermi Contact Couplings
        Atom                 a.u.       MegaHertz       Gauss      10(-4) cm-1
     1  O(17)              0.00000      -0.00000      -0.00000      -0.00000
     2  O(17)              0.00000      -0.00000      -0.00000      -0.00000
     3  H(1)               0.00000       0.00000       0.00000       0.00000
 --------------------------------------------------------
       Center         ----  Spin Dipole Couplings  ----
                      3XX-RR        3YY-RR        3ZZ-RR
 --------------------------------------------------------
     1   Atom       -1.816330     -1.812939      3.629270
     2   Atom       -0.315047     -0.199983      0.515031
     3   Atom        0.014427      0.004404     -0.018830
 --------------------------------------------------------
                        XY            XZ            YZ
 --------------------------------------------------------
     1   Atom        0.000084     -0.000000     -0.000000
     2   Atom        0.000541      0.000000     -0.000000
     3   Atom        0.029569     -0.000000     -0.000000
 --------------------------------------------------------


 ---------------------------------------------------------------------------------
              Anisotropic Spin Dipole Couplings in Principal Axis System
 ---------------------------------------------------------------------------------

       Atom             a.u.   MegaHertz   Gauss  10(-4) cm-1        Axes

              Baa    -1.8163   131.429    46.897    43.840  0.9997 -0.0248  0.0000
     1 O(17)  Bbb    -1.8129   131.183    46.809    43.758  0.0248  0.9997  0.0000
              Bcc     3.6293  -262.611   -93.706   -87.598  0.0000  0.0000  1.0000
 
              Baa    -0.3150    22.797     8.134     7.604  1.0000 -0.0047  0.0000
     2 O(17)  Bbb    -0.2000    14.470     5.163     4.827  0.0047  1.0000  0.0000
              Bcc     0.5150   -37.267   -13.298   -12.431  0.0000  0.0000  1.0000
 
              Baa    -0.0206   -10.978    -3.917    -3.662 -0.6453  0.7639 -0.0000
     3 H(1)   Bbb    -0.0188   -10.047    -3.585    -3.351  0.0000  0.0000  1.0000
              Bcc     0.0394    21.025     7.502     7.013  0.7639  0.6453 -0.0000
 

 ---------------------------------------------------------------------------------

 1\1\GINC-B460\SP\ROHF\CC-pVDZ\H1O2(2)\KMOORE\27-Jan-2019\0\\# ROHF/cc-
 pVDZ\\Single Point\\0,2\O,0,0.,0.,0.\O,0,0.,0.,1.311565\H,0,0.943625,0
 .,1.573176\\Version=ES64L-G09RevE.01\State=2-A"\HF=-150.1819306\RMSD=1
 .763e-09\Dipole=0.7230074,0.,0.3532134\Quadrupole=0.5967553,-0.2150007
 ,-0.3817546,0.,1.2864402,0.\PG=CS [SG(H1O2)]\\@


 TRUTH, IN SCIENCE, CAN BE DEFINED AS THE WORKING HYPOTHESIS 
 BEST FITTED TO OPEN THE WAY TO THE NEXT BETTER ONE.

                              -- KONRAD LORENZ
 Job cpu time:       0 days  0 hours  0 minutes  0.8 seconds.
 File lengths (MBytes):  RWF=      5 Int=      0 D2E=      0 Chk=      1 Scr=      1
 Normal termination of Gaussian 09 at Sun Jan 27 13:22:39 2019.
