
    -----------------------------------------------------------------------
          Psi4: An Open-Source Ab Initio Electronic Structure Package
                               Psi4 1.2.1 release

                         Git: Rev {HEAD} 406f4de 


    R. M. Parrish, L. A. Burns, D. G. A. Smith, A. C. Simmonett,
    A. E. DePrince III, E. G. Hohenstein, U. Bozkaya, A. Yu. Sokolov,
    R. Di Remigio, R. M. Richard, J. F. Gonthier, A. M. James,
    H. R. McAlexander, A. Kumar, M. Saitow, X. Wang, B. P. Pritchard,
    P. Verma, H. F. Schaefer III, K. Patkowski, R. A. King, E. F. Valeev,
    F. A. Evangelista, J. M. Turney, T. D. Crawford, and C. D. Sherrill,
    J. Chem. Theory Comput. 13(7) pp 3185--3197 (2017).
    (doi: 10.1021/acs.jctc.7b00174)


                         Additional Contributions by
    P. Kraus, H. Kruse, M. H. Lechner, M. C. Schieber, and R. A. Shaw

    -----------------------------------------------------------------------


    Psi4 started on: Tuesday, 29 January 2019 11:25AM

    Process ID: 122811
    Host:       blogin1
    PSIDATADIR: /home/kmoore/miniconda/envs/esenv/share/psi4
    Memory:     500.0 MiB
    Threads:    1
    
  ==> Input File <==

--------------------------------------------------------------------------
# Psi4 1.0 Computation 

molecule {
 0 1
 H
 O 1 r1
 C 2 r2 1 a1
 H 3 r3 2 a2 1 d1
 H 3 r4 4 a3 2 d2
 H 3 r4 4 a3 2 d3
 r1 =   0.992
 r2 =   1.398
 r3 =   1.109
 r4 =   1.112
 a1 =   106.0
 a2 =   108.9
 a3 =   108.2
 d2 =   119.9
 d3 =  -119.9
 d1 =  -180.0
 units angstrom
}

set reference rks
set scf_type pk
set basis cc-pVDZ 

G, wfn1 = gradient('b3lyp', return_wfn=True)
wfn1.gradient().print_out()


--------------------------------------------------------------------------
gradient() will perform analytic gradient computation.

*** tstart() called on blogin1
*** at Tue Jan 29 11:25:50 2019

   => Loading Basis Set <=

    Name: CC-PVDZ
    Role: ORBITAL
    Keyword: BASIS
    atoms 1, 4-6 entry H          line    22 file /home/kmoore/miniconda/envs/esenv/share/psi4/basis/cc-pvdz.gbs 
    atoms 2      entry O          line   198 file /home/kmoore/miniconda/envs/esenv/share/psi4/basis/cc-pvdz.gbs 
    atoms 3      entry C          line   138 file /home/kmoore/miniconda/envs/esenv/share/psi4/basis/cc-pvdz.gbs 


         ---------------------------------------------------------
                                   SCF
            by Justin Turney, Rob Parrish, Andy Simmonett
                             and Daniel Smith
                              RKS Reference
                        1 Threads,    500 MiB Core
         ---------------------------------------------------------

  ==> Geometry <==

    Molecular point group: cs
    Full point group: Cs

    Geometry (in Angstrom), charge = 0, multiplicity = 1:

       Center              X                  Y                   Z               Mass       
    ------------   -----------------  -----------------  -----------------  -----------------
         H           -0.664155555980     1.152892367064     0.000000000000     1.007825032070
         O           -0.664155555980     0.160892367064     0.000000000000    15.994914619560
         C            0.679688294942    -0.224448656368     0.000000000000    12.000000000000
         H            0.735795865487    -1.332028423486     0.000000000000     1.007825032070
         H            1.188029121763     0.149064567033     0.915762783548     1.007825032070
         H            1.188029121763     0.149064567033    -0.915762783548     1.007825032070

  Running in cs symmetry.

  Rotational constants: A =      4.07646  B =      0.84837  C =      0.81733 [cm^-1]
  Rotational constants: A = 122209.07104  B =  25433.38399  C =  24502.83981 [MHz]
  Nuclear repulsion =   40.349891215838305

  Charge       = 0
  Multiplicity = 1
  Electrons    = 18
  Nalpha       = 9
  Nbeta        = 9

  ==> Algorithm <==

  SCF Algorithm Type is PK.
  DIIS enabled.
  MOM disabled.
  Fractional occupation disabled.
  Guess Type is SAD.
  Energy threshold   = 1.00e-08
  Density threshold  = 1.00e-08
  Integral threshold = 0.00e+00

  ==> Primary Basis <==

  Basis Set: CC-PVDZ
    Blend: CC-PVDZ
    Number of shells: 24
    Number of basis function: 48
    Number of Cartesian functions: 50
    Spherical Harmonics?: true
    Max angular momentum: 2

  ==> DFT Potential <==

   => Composite Functional: B3LYP <= 

    B3LYP Hyb-GGA Exchange-Correlation Functional

    P. J. Stephens, F. J. Devlin, C. F. Chabalowski, and M. J. Frisch, J. Phys. Chem. 98, 11623 (1994)

    Deriv               =              1
    GGA                 =           TRUE
    Meta                =          FALSE

    Exchange Hybrid     =           TRUE
    MP2 Hybrid          =          FALSE

   => Exchange Functionals <=

    0.0800   Slater exchange
    0.7200         Becke 88

   => Exact (HF) Exchange <=

    0.2000               HF 

   => Correlation Functionals <=

    0.1900   Vosko, Wilk & Nusair (VWN5_RPA)
    0.8100   Lee, Yang & Parr

   => Molecular Quadrature <=

    Radial Scheme       =       TREUTLER
    Pruning Scheme      =           FLAT
    Nuclear Scheme      =       TREUTLER

    BS radius alpha     =              1
    Pruning alpha       =              1
    Radial Points       =             75
    Spherical Points    =            302
    Total Points        =         133371
    Total Blocks        =           1069
    Max Points          =            255
    Max Functions       =             48

  ==> Pre-Iterations <==

   -------------------------------------------------------
    Irrep   Nso     Nmo     Nalpha   Nbeta   Ndocc  Nsocc
   -------------------------------------------------------
     A'        33      33       0       0       0       0
     A"        15      15       0       0       0       0
   -------------------------------------------------------
    Total      48      48       9       9       9       0
   -------------------------------------------------------

  ==> Integral Setup <==

  Using in-core PK algorithm.
   Calculation information:
      Number of atoms:                   6
      Number of AO shells:              24
      Number of primitives:             64
      Number of atomic orbitals:        50
      Number of basis functions:        48

      Integral cutoff                 1.00e-12
      Number of threads:                 1

  Performing in-core PK
  Using 1384152 doubles for integral storage.
  We computed 45150 shell quartets total.
  Whereas there are 45150 unique shell quartets.

  ==> DiskJK: Disk-Based J/K Matrices <==

    J tasked:                  Yes
    K tasked:                  Yes
    wK tasked:                  No
    Memory (MB):               375
    Schwarz Cutoff:          1E-12

    OpenMP threads:              1

  Minimum eigenvalue in the overlap matrix is 1.6456160653E-02.
  Using Symmetric Orthogonalization.

  SCF Guess: Superposition of Atomic Densities via on-the-fly atomic UHF.

  ==> Iterations <==

                        Total Energy        Delta E     RMS |[F,P]|

   @RKS iter   0:  -115.72902527612139   -1.15729e+02   6.08453e-02 
   @RKS iter   1:  -115.64697467382399    8.20506e-02   1.13481e-02 
   @RKS iter   2:  -115.58899988234297    5.79748e-02   1.58075e-02 DIIS
   @RKS iter   3:  -115.72017983797406   -1.31180e-01   1.25285e-03 DIIS
   @RKS iter   4:  -115.72094049993699   -7.60662e-04   5.05063e-04 DIIS
   @RKS iter   5:  -115.72109006595059   -1.49566e-04   6.29392e-05 DIIS
   @RKS iter   6:  -115.72109215563771   -2.08969e-06   3.60006e-06 DIIS
   @RKS iter   7:  -115.72109216474955   -9.11184e-09   3.22893e-07 DIIS
   @RKS iter   8:  -115.72109216482819   -7.86429e-11   1.02354e-07 DIIS
   @RKS iter   9:  -115.72109216483379   -5.59908e-12   1.67034e-08 DIIS
   @RKS iter  10:  -115.72109216483396   -1.70530e-13   1.45025e-09 DIIS

  ==> Post-Iterations <==

    Orbital Energies [Eh]
    ---------------------

    Doubly Occupied:                                                      

       1Ap   -19.130067     2Ap   -10.226838     3Ap    -1.012702  
       4Ap    -0.669289     5Ap    -0.497107     1App   -0.436927  
       6Ap    -0.419895     7Ap    -0.324690     2App   -0.261243  

    Virtual:                                                              

       8Ap     0.049522     9Ap     0.092724     3App    0.134898  
      10Ap     0.136063    11Ap     0.198429    12Ap     0.447033  
       4App    0.464509    13Ap     0.492829    14Ap     0.559325  
       5App    0.624687    15Ap     0.641569    16Ap     0.645741  
      17Ap     0.871973     6App    0.894658    18Ap     0.949857  
      19Ap     1.003352     7App    1.065717    20Ap     1.193599  
       8App    1.338220    21Ap     1.399287     9App    1.399293  
      10App    1.577178    22Ap     1.612318    23Ap     1.643474  
      11App    1.667352    24Ap     1.750932    25Ap     1.866372  
      26Ap     1.966940    27Ap     2.055465    12App    2.069418  
      28Ap     2.134360    13App    2.375151    29Ap     2.389971  
      30Ap     2.403809    14App    2.925759    15App    3.014099  
      31Ap     3.074751    32Ap     3.189609    33Ap     3.642410  

    Final Occupation by Irrep:
             Ap   App 
    DOCC [     7,    2 ]

  Energy converged.

  @RKS Final Energy:  -115.72109216483396

   => Energetics <=

    Nuclear Repulsion Energy =             40.3498912158383050
    One-Electron Energy =                -237.1701221090598324
    Two-Electron Energy =                  93.6478929804738414
    DFT Exchange-Correlation Energy =     -12.5487542520862778
    Empirical Dispersion Energy =           0.0000000000000000
    VV10 Nonlocal Energy =                  0.0000000000000000
    Total Energy =                       -115.7210921648339621



Properties will be evaluated at   0.000000,   0.000000,   0.000000 [a0]

Properties computed using the SCF density matrix

  Nuclear Dipole Moment: [e a0]
     X:     2.2915      Y:     0.1123      Z:     0.0000

  Electronic Dipole Moment: [e a0]
     X:    -1.8587      Y:     0.3149      Z:     0.0000

  Dipole Moment: [e a0]
     X:     0.4327      Y:     0.4272      Z:     0.0000     Total:     0.6081

  Dipole Moment: [D]
     X:     1.0998      Y:     1.0858      Z:     0.0000     Total:     1.5455


*** tstop() called on blogin1 at Tue Jan 29 11:25:55 2019
Module time:
	user time   =       5.46 seconds =       0.09 minutes
	system time =       0.09 seconds =       0.00 minutes
	total time  =          5 seconds =       0.08 minutes
Total time:
	user time   =       5.46 seconds =       0.09 minutes
	system time =       0.09 seconds =       0.00 minutes
	total time  =          5 seconds =       0.08 minutes

*** tstart() called on blogin1
*** at Tue Jan 29 11:25:55 2019


         ------------------------------------------------------------
                                   SCF GRAD                          
                          Rob Parrish, Justin Turney,                
                       Andy Simmonett, and Alex Sokolov              
         ------------------------------------------------------------

  ==> Geometry <==

    Molecular point group: cs
    Full point group: Cs

    Geometry (in Angstrom), charge = 0, multiplicity = 1:

       Center              X                  Y                   Z               Mass       
    ------------   -----------------  -----------------  -----------------  -----------------
         H           -0.664155555980     1.152892367064     0.000000000000     1.007825032070
         O           -0.664155555980     0.160892367064     0.000000000000    15.994914619560
         C            0.679688294942    -0.224448656368     0.000000000000    12.000000000000
         H            0.735795865487    -1.332028423486     0.000000000000     1.007825032070
         H            1.188029121763     0.149064567033     0.915762783548     1.007825032070
         H            1.188029121763     0.149064567033    -0.915762783548     1.007825032070

  Nuclear repulsion =   40.349891215838305

  ==> Basis Set <==

  Basis Set: CC-PVDZ
    Blend: CC-PVDZ
    Number of shells: 24
    Number of basis function: 48
    Number of Cartesian functions: 50
    Spherical Harmonics?: true
    Max angular momentum: 2

  ==> DirectJKGrad: Integral-Direct SCF Gradients <==

    Gradient:                    1
    J tasked:                  Yes
    K tasked:                  Yes
    wK tasked:                  No
    Integrals threads:           1
    Schwarz Cutoff:          0E+00

  ==> DFT Potential <==

   => Composite Functional: B3LYP <= 

    B3LYP Hyb-GGA Exchange-Correlation Functional

    P. J. Stephens, F. J. Devlin, C. F. Chabalowski, and M. J. Frisch, J. Phys. Chem. 98, 11623 (1994)

    Deriv               =              1
    GGA                 =           TRUE
    Meta                =          FALSE

    Exchange Hybrid     =           TRUE
    MP2 Hybrid          =          FALSE

   => Exchange Functionals <=

    0.0800   Slater exchange
    0.7200         Becke 88

   => Exact (HF) Exchange <=

    0.2000               HF 

   => Correlation Functionals <=

    0.1900   Vosko, Wilk & Nusair (VWN5_RPA)
    0.8100   Lee, Yang & Parr

   => Molecular Quadrature <=

    Radial Scheme       =       TREUTLER
    Pruning Scheme      =           FLAT
    Nuclear Scheme      =       TREUTLER

    BS radius alpha     =              1
    Pruning alpha       =              1
    Radial Points       =             75
    Spherical Points    =            302
    Total Points        =         133371
    Total Blocks        =           1069
    Max Points          =            255
    Max Functions       =             48


  -Total Gradient:
     Atom            X                  Y                   Z
    ------   -----------------  -----------------  -----------------
       1        0.002579285244     0.022151596840     0.000000000000
       2        0.015841557012    -0.022963149512     0.000000000000
       3       -0.008425095461     0.000518302982     0.000000000000
       4        0.001702570828    -0.004764619050     0.000000000000
       5       -0.005847924108     0.002530482586     0.004384112117
       6       -0.005847924108     0.002530482586    -0.004384112117


*** tstop() called on blogin1 at Tue Jan 29 11:25:57 2019
Module time:
	user time   =       1.92 seconds =       0.03 minutes
	system time =       0.01 seconds =       0.00 minutes
	total time  =          2 seconds =       0.03 minutes
Total time:
	user time   =       7.38 seconds =       0.12 minutes
	system time =       0.10 seconds =       0.00 minutes
	total time  =          7 seconds =       0.12 minutes
  ## Total Gradient (Symmetry 0) ##
  Irrep: 1 Size: 6 x 3

                 1                   2                   3

    1     0.00257928524421     0.02215159683960     0.00000000000000
    2     0.01584155701236    -0.02296314951203     0.00000000000000
    3    -0.00842509546089     0.00051830298216     0.00000000000000
    4     0.00170257082835    -0.00476461904951     0.00000000000000
    5    -0.00584792410848     0.00253048258634     0.00438411211665
    6    -0.00584792410848     0.00253048258634    -0.00438411211665




    Psi4 stopped on: Tuesday, 29 January 2019 11:25AM
    Psi4 wall time for execution: 0:00:07.51

*** Psi4 exiting successfully. Buy a developer a beer!
