
 Primary working directories    : /scratch/kmoore
 Secondary working directories  : /scratch/kmoore
 Wavefunction directory         : /scratch/kmoore/
 Main file repository           : /scratch/kmoore/

 SHA1      : b6b3a4772808bb2d43777f23454e145ddfe12dc3
 NAME      : 2015.1.1
 ARCHNAME  : linux/x86_64
 FC        : /soft/mvapich2/2.2b_psm/intel-15.0/bin/mpif90
 BLASLIB   : -L/soft/intel/15.0.1/composer_xe_2015.0.090/mkl/lib/intel64 -lmkl_intel_ilp64 -lmkl_sequential -lmkl_core
 id        : anlgov

 Nodes     nprocs
 b455         7
 Number of processes for MPI-2 version of Molpro:   nprocs(total)=    8   nprocs(compute)=    7   nprocs(helper)=    1

 Using customized tuning parameters: mindgm=1; mindgv=20; mindgc=4; mindgr=1; noblas=0; minvec=7
 default implementation of scratch files=sf  

 memory,850,m
 gthresh,energy=1.0d-10,orbital=1.0d-10,oneint=1.d-12,twoint=1.d-14
 
 nosym
 angstrom
 Geometry = {
  H         -0.8343440476        0.0000008042       -1.0390259125
  O          0.0658387931        0.0000000895       -0.6924224523
  C         -0.0122327284        0.0000000797        0.7260167865
  H         -1.0509610612        0.0000917764        1.1030575536
  H          0.4930763787        0.8935260093        1.1377785640
  H          0.4929153924       -0.8936209607        1.1377696908
 }
 
 basis=cc-pVDZ
 {rks,b3lyp3,maxit=300}
 
 {optg,root=2}
 
 {freq
  print,hessian}
 

 Variables initialized (889), CPU time= 0.00 sec
 Commands  initialized (702), CPU time= 0.01 sec, 572 directives.
 Default parameters read. Elapsed time= 0.07 sec

 Checking input...
 Passed
1


                                         ***  PROGRAM SYSTEM MOLPRO  ***
                                       Copyright, TTI GmbH Stuttgart, 2015
                                    Version 2015.1 linked Jan  8 2016 07:59:11


 **********************************************************************************************************************************
 LABEL *                                                                                 
  64 bit mpp version                                                                     DATE: 27-Jan-19          TIME: 13:55:46  
 **********************************************************************************************************************************

 SHA1:             b6b3a4772808bb2d43777f23454e145ddfe12dc3
 **********************************************************************************************************************************

 THRESHOLDS:

 ZERO    =  1.00D-12  ONEINT  =  1.00D-12  TWOINT  =  1.00D-14  PREFAC  =  1.00D-14  LOCALI  =  1.00D-09  EORDER  =  1.00D-04
 ENERGY  =  1.00D-10  ETEST   =  0.00D+00  EDENS   =  0.00D+00  THRDEDEF=  1.00D-06  GRADIENT=  1.00D-02  STEP    =  1.00D-03
 ORBITAL =  1.00D-10  CIVEC   =  1.00D-05  COEFF   =  1.00D-04  PRINTCI =  5.00D-02  PUNCHCI =  9.90D+01  OPTGRAD =  3.00D-04
 OPTENERG=  1.00D-06  OPTSTEP =  3.00D-04  THRGRAD =  1.00D-10  COMPRESS=  1.00D-11  VARMIN  =  1.00D-07  VARMAX  =  1.00D-03
 THRDOUB =  0.00D+00  THRDIV  =  1.00D-05  THRRED  =  1.00D-07  THRPSP  =  1.00D+00  THRDC   =  1.00D-10  THRCS   =  1.00D-10
 THRNRM  =  1.00D-08  THREQ   =  0.00D+00  THRDE   =  1.00D+00  THRREF  =  1.00D-05  SPARFAC =  1.00D+00  THRDLP  =  1.00D-07
 THRDIA  =  1.00D-10  THRDLS  =  1.00D-07  THRGPS  =  0.00D+00  THRKEX  =  0.00D+00  THRDIS  =  2.00D-01  THRVAR  =  1.00D-10
 THRLOC  =  1.00D-06  THRGAP  =  1.00D-06  THRLOCT = -1.00D+00  THRGAPT = -1.00D+00  THRORB  =  1.00D-06  THRMLTP =  0.00D+00
 THRCPQCI=  1.00D-10  KEXTA   =  0.00D+00  THRCOARS=  0.00D+00  SYMTOL  =  1.00D-06  GRADTOL =  1.00D-06  THROVL  =  1.00D-08
 THRORTH =  1.00D-08  GRID    =  1.00D-06  GRIDMAX =  1.00D-03  DTMAX   =  0.00D+00  THROCCDE=  1.00D-01  THROCCDE=  1.00D-01



 Variable memory set to  850000000 words,  buffer space   230000 words

 ZSYMEL=NOSYM
 ZUNIT=ANG
 

Geometry recognized as XYZ

 SETTING BASIS          =    CC-PVDZ


 Recomputing integrals since basis changed


 Using spherical harmonics

 Library entry H      S cc-pVDZ              selected for orbital group  1
 Library entry H      P cc-pVDZ              selected for orbital group  1
 Library entry O      S cc-pVDZ              selected for orbital group  2
 Library entry O      P cc-pVDZ              selected for orbital group  2
 Library entry O      D cc-pVDZ              selected for orbital group  2
 Library entry C      S cc-pVDZ              selected for orbital group  3
 Library entry C      P cc-pVDZ              selected for orbital group  3
 Library entry C      D cc-pVDZ              selected for orbital group  3

1PROGRAM * SEWARD (Integral evaluation for generally contracted gaussian basis sets)     Author: Roland Lindh, 1990

 Geometry written to block  1 of record 700


 Point group  C1  



 ATOMIC COORDINATES

 NR  ATOM    CHARGE       X              Y              Z

   1  H       1.00   -1.576681744    0.000001520   -1.963474411
   2  O       8.00    0.124417287    0.000000169   -1.308488797
   3  C       6.00   -0.023116506    0.000000151    1.371972888
   4  H       1.00   -1.986028573    0.000173432    2.084476676
   5  H       1.00    0.931779314    1.688519443    2.150089876
   6  H       1.00    0.931475094   -1.688698875    2.150073108

 Bond lengths in Bohr (Angstrom)

 1-2  1.822839562  2-3  2.684518778  3-4  2.088225433  3-5  2.090069251  3-6  2.090069251
     ( 0.964605155)     ( 1.420586160)     ( 1.105041310)     ( 1.106017017)     ( 1.106017017)

 Bond angles

  1-2-3  107.90813231   2-3-4  113.10044469   2-3-5  110.28079847   2-3-6  110.28079846

  4-3-5  107.59956528   4-3-6  107.59956528   5-3-6  107.78644825

 NUCLEAR CHARGE:                   18
 NUMBER OF PRIMITIVE AOS:          82
 NUMBER OF SYMMETRY AOS:           80
 NUMBER OF CONTRACTIONS:           48   (  48A   )
 NUMBER OF CORE ORBITALS:           2   (   2A   )
 NUMBER OF VALENCE ORBITALS:       12   (  12A   )


 NUCLEAR REPULSION ENERGY   40.11196096

 Eigenvalues of metric

         1 0.981E-02 0.176E-01 0.347E-01 0.389E-01 0.396E-01 0.498E-01 0.510E-01 0.551E-01


 Contracted 2-electron integrals neglected if value below      1.0D-14
 AO integral compression algorithm  1   Integral accuracy      1.0D-14

     7.078 MB (compressed) written to integral file ( 96.6%)

     Node minimum: 0.786 MB, node maximum: 1.049 MB


 NUMBER OF SORTED TWO-ELECTRON INTEGRALS:      99372.     BUFFER LENGTH:  32768
 NUMBER OF SEGMENTS:   1  SEGMENT LENGTH:      99372      RECORD LENGTH: 524288

 Memory used in sort:       0.66 MW

 SORT1 READ      839336. AND WROTE       97714. INTEGRALS IN      1 RECORDS. CPU TIME:     0.01 SEC, REAL TIME:     0.02 SEC
 SORT2 READ      681497. AND WROTE      692076. INTEGRALS IN     28 RECORDS. CPU TIME:     0.01 SEC, REAL TIME:     0.01 SEC

 Node minimum:       98364.  Node maximum:       99372. integrals

 OPERATOR DM      FOR CENTER  0  COORDINATES:    0.000000    0.000000    0.000000


 **********************************************************************************************************************************
 DATASETS  * FILE   NREC   LENGTH (MB)   RECORD NAMES
              1      18       19.24       500      610      700      900      950      970     1000      129      960     1100   
                                          VAR    BASINP    GEOM    SYMINP    ZMAT    AOBASIS   BASIS     P2S    ABASIS      S 
                                         1400     1410     1200     1210     1080     1600     1650     1700   
                                           T        V       H0       H01     AOSYM     SMH    MOLCAS    OPER   

 PROGRAMS   *        TOTAL       INT
 CPU TIMES  *         0.40      0.26
 REAL TIME  *         0.82 SEC
 DISK USED  *        34.45 MB      
 GA USED    *         0.00 MB       (max)       0.00 MB       (current)
 **********************************************************************************************************************************

 Density functional group B3LYP3=B88+DIRAC+LYP+VWN3
 Functional: B88(Automatically generated (new) B88)                            Gradient terms: 1
 Functional: DIRAC(Automatically generated (new) DIRAC)                        Gradient terms: 0
 Functional: LYP(Automatically generated (new) LYP)                            Gradient terms: 1
 Functional: VWN3(Automatically generated (new) VWN3)                          Gradient terms: 0
 Use grid at  1800.2
 

 Exact exchange will be calculated, factor:  0.2000

 Functional: B88                       Factor:  0.7200
 Functional: DIRAC                     Factor:  0.0800
 Functional: LYP                       Factor:  0.8100
 Functional: VWN3                      Factor:  0.1900
 
 Generated new metagrid on record  1800.2 with target accuracy 1.0D-06 and 22204 points in CPU time    0.1
 Computed new grid on record 1800.1 in CPU time    0.1
   42186 words reserved for DFT integration

 PROGRAM * RKS-SCF (Restricted closed shell Kohn-Sham)     Authors: W. Meyer, H.-J. Werner, P.J. Knowles, 1993

 NUMBER OF ELECTRONS:       9+    9-    SPACE SYMMETRY=1    SPIN SYMMETRY: Singlet 
 CONVERGENCE THRESHOLDS:    1.00E-10 (Density)    1.00E-10 (Energy)
 MAX. NUMBER OF ITERATIONS:      300
 INTERPOLATION TYPE:            DIIS
 INTERPOLATION STEPS:              2 (START)      1 (STEP)
 LEVEL SHIFTS:                  0.00 (CLOSED)  0.00 (OPEN) 



 Use fine grid record 1800.2 for energy threshold  1.0D-06
 Orbital guess generated from atomic densities. Full valence occupancy:   14

 Molecular orbital dump at record        2100.2

 Initial occupancy:   9

 ITERATION    DDIFF          GRAD             ENERGY        2-EL.EN.            DIPOLE MOMENTS         DIIS   ORB.
    1      0.000D+00      0.000D+00      -115.65399196    192.062308   -0.92277    0.00001    0.49902    0    start
    2      0.000D+00      0.146D-01      -115.61306160    180.189619   -0.19980    0.00001   -0.08696    1    diag
    3      0.470D-01      0.195D-01      -115.71981632    186.839306   -0.59377    0.00001    0.31469    2    diag
    4      0.254D-01      0.168D-02      -115.72055695    186.864753   -0.59071    0.00001    0.27275    3    diag
    5      0.306D-02      0.634D-03      -115.72067584    186.807799   -0.59285    0.00001    0.27818    4    diag
    6      0.958D-03      0.836D-04      -115.72067799    186.824235   -0.59229    0.00001    0.27868    5    diag
    7      0.123D-03      0.547D-05      -115.72067800    186.825513   -0.59261    0.00001    0.27871    6    diag
    8      0.842D-05      0.931D-06      -115.72067800    186.825652   -0.59254    0.00001    0.27872    7    diag
    9      0.181D-05      0.152D-06      -115.72067800    186.825633   -0.59255    0.00001    0.27872    8    diag
   10      0.243D-06      0.221D-07      -115.72067800    186.825632   -0.59255    0.00001    0.27872    9    orth
   11      0.331D-07      0.228D-08      -115.72067800    186.825631   -0.59255    0.00001    0.27872    9    diag
   12      0.474D-08      0.338D-09      -115.72067800    186.825631   -0.59255    0.00001    0.27872    9    diag
   13      0.539D-09      0.342D-10      -115.72067800    186.825631   -0.59255    0.00001    0.27872    9    diag
   14      0.746D-10      0.635D-11      -115.72067800    186.825631   -0.59255    0.00001    0.27872    0    orth

 Final occupancy:   9

 !RKS STATE 1.1 Energy               -115.720677999873
 Nuclear energy                        40.11196096
 One-electron energy                 -236.69229666
 Two-electron energy                   93.41281565
 SCF exchange energy                  -14.83650892     Factor= 0.2000
 Density functional                   -12.55315794     B88=-14.87593191 DIRAC=-13.41343375 LYP= -0.59559955 VWN3= -1.51040335
 Virial quotient                       -1.00655206
 !RKS STATE 1.1 Dipole moment          -0.59254751     0.00000633     0.27872021
 Dipole moment /Debye                  -1.50600689     0.00001608     0.70838971

 Orbital energies:

         1.1          2.1          3.1          4.1          5.1          6.1          7.1          8.1          9.1         10.1
    -19.128033   -10.227075    -1.009114    -0.675489    -0.500814    -0.429232    -0.418559    -0.327221    -0.262187     0.051272

        11.1
      0.090842

 HOMO      9.1    -0.262187 =      -7.1345eV
 LUMO     10.1     0.051272 =       1.3952eV
 LUMO-HOMO         0.313459 =       8.5297eV


 **********************************************************************************************************************************
 DATASETS  * FILE   NREC   LENGTH (MB)   RECORD NAMES
              1      19       19.24       500      610      700      900      950      970     1000      129      960     1100   
                                          VAR    BASINP    GEOM    SYMINP    ZMAT    AOBASIS   BASIS     P2S    ABASIS      S 
                                         1400     1410     1200     1210     1080     1600     1650     1700     1800   
                                           T        V       H0       H01     AOSYM     SMH    MOLCAS    OPER     GRID   

              2       5        0.50       700     1000      520     1800     2100   
                                         GEOM     BASIS   MCVARS    GRID      RKS  

 PROGRAMS   *        TOTAL       RKS       INT
 CPU TIMES  *         0.67      0.27      0.26
 REAL TIME  *         1.11 SEC
 DISK USED  *       174.16 MB      
 SF USED    *         0.01 MB      
 GA USED    *         0.78 MB       (max)       0.78 MB       (current)
 **********************************************************************************************************************************


 PROGRAM * OPT (Geometry optimization)     Authors: F. Eckert and H.-J. Werner


 Running default procedure: RKS-SCF000

 Geometry optimization using default procedure for command RKS-SCF

 Geometry written to block  1 of record 700
1PROGRAM * ALASKA (Gradient of the energy)     Author: R. Lindh

 Orbitals from record         2100.2

 Number of closed-shell orbitals:  9 (  9 )
 Number of occupied orbitals:      9 (  9 )

 Number of electrons= 18     Singlet     Space symmetry=1      Wavefunction type: CLOSED          

 Gradient contributions of integration grid neglected (GRIDGRAD=0).
 Computed new grid on record 1800.1 in CPU time    0.0

 DFT GRADIENT, EXFAC=     0.200

 RKS GRADIENT FOR STATE 1.1

 Atom          dE/dx               dE/dy               dE/dz

   1        -0.000005633         0.000000352         0.000029338
   2         0.000012623        -0.000001388        -0.000022415
   3         0.000000720         0.000000983        -0.000004616
   4         0.000001345        -0.000000301         0.000001246
   5        -0.000000528        -0.000000707         0.000000280
   6        -0.000000618         0.000001044        -0.000001263

 Nuclear force contribution to virial =        -0.000030382
 

 Recomputing wavefunction at reference geometry

 Density functional group B3LYP3=B88+DIRAC+LYP+VWN3
 Functional: B88(Automatically generated (new) B88)                            Gradient terms: 1
 Functional: DIRAC(Automatically generated (new) DIRAC)                        Gradient terms: 0
 Functional: LYP(Automatically generated (new) LYP)                            Gradient terms: 1
 Functional: VWN3(Automatically generated (new) VWN3)                          Gradient terms: 0
 Use grid at  1800.2
 

 Exact exchange will be calculated, factor:  0.2000

 Functional: B88                       Factor:  0.7200
 Functional: DIRAC                     Factor:  0.0800
 Functional: LYP                       Factor:  0.8100
 Functional: VWN3                      Factor:  0.1900
 
   42186 words reserved for DFT integration

 PROGRAM * RKS-SCF (Restricted closed shell Kohn-Sham)     Authors: W. Meyer, H.-J. Werner, P.J. Knowles, 1993

 NUMBER OF ELECTRONS:       9+    9-    SPACE SYMMETRY=1    SPIN SYMMETRY: Singlet 
 CONVERGENCE THRESHOLDS:    1.00E-10 (Density)    1.00E-10 (Energy)
 MAX. NUMBER OF ITERATIONS:      300
 INTERPOLATION TYPE:            DIIS
 INTERPOLATION STEPS:              2 (START)      1 (STEP)
 LEVEL SHIFTS:                  0.00 (CLOSED)  0.00 (OPEN) 



 Use fine grid record 1800.2 for energy threshold  1.0D-06
 Molecular orbitals read from record     2100.2  Type=RKS/CANONICAL (state 1.1)

 Molecular orbital dump at record        2100.2

 ITERATION    DDIFF          GRAD             ENERGY        2-EL.EN.            DIPOLE MOMENTS         DIIS   ORB.
    1      0.000D+00      0.000D+00      -115.72067800    186.825631   -0.59255    0.00001    0.27872    0    start
    2      0.000D+00      0.599D-11      -115.72067800    186.825631   -0.59255    0.00001    0.27872    0    orth

 Final occupancy:   9

 !RKS STATE 1.1 Energy               -115.720677999874
 Nuclear energy                        40.11196096
 One-electron energy                 -236.69229666
 Two-electron energy                   93.41281565
 SCF exchange energy                  -14.83650892     Factor= 0.2000
 Density functional                   -12.55315794     B88=-14.87593191 DIRAC=-13.41343375 LYP= -0.59559955 VWN3= -1.51040335
 Virial quotient                       -1.00655206
 !RKS STATE 1.1 Dipole moment          -0.59254751     0.00000633     0.27872021
 Dipole moment /Debye                  -1.50600689     0.00001608     0.70838971

 Orbital energies:

         1.1          2.1          3.1          4.1          5.1          6.1          7.1          8.1          9.1         10.1
    -19.128033   -10.227075    -1.009114    -0.675489    -0.500814    -0.429232    -0.418559    -0.327221    -0.262187     0.051272

        11.1
      0.090842

 HOMO      9.1    -0.262187 =      -7.1345eV
 LUMO     10.1     0.051272 =       1.3952eV
 LUMO-HOMO         0.313459 =       8.5297eV


 **********************************************************************************************************************************
 DATASETS  * FILE   NREC   LENGTH (MB)   RECORD NAMES
              1      19       19.24       500      610      700      900      950      970     1000      129      960     1100   
                                          VAR    BASINP    GEOM    SYMINP    ZMAT    AOBASIS   BASIS     P2S    ABASIS      S 
                                         1400     1410     1200     1210     1080     1600     1650     1700     1800   
                                           T        V       H0       H01     AOSYM     SMH    MOLCAS    OPER     GRID   

              2       6        0.56       700     1000      520     1800     2100     5300   
                                         GEOM     BASIS   MCVARS    GRID      RKS     HESS   

 PROGRAMS   *        TOTAL       RKS       RKS       INT
 CPU TIMES  *         2.78      0.03      0.27      0.26
 REAL TIME  *         4.24 SEC
 DISK USED  *       174.16 MB      
 SF USED    *         0.01 MB      
 GA USED    *         0.78 MB       (max)       0.78 MB       (current)
 **********************************************************************************************************************************

 Computing gradient at reference geometry
1PROGRAM * ALASKA (Gradient of the energy)     Author: R. Lindh

 Orbitals from record         2100.2

 Number of closed-shell orbitals:  9 (  9 )
 Number of occupied orbitals:      9 (  9 )

 Number of electrons= 18     Singlet     Space symmetry=1      Wavefunction type: CLOSED          

 Gradient contributions of integration grid neglected (GRIDGRAD=0).

 DFT GRADIENT, EXFAC=     0.200

 RKS GRADIENT FOR STATE 1.1

 Atom          dE/dx               dE/dy               dE/dz

   1        -0.000005633         0.000000352         0.000029338
   2         0.000012623        -0.000001388        -0.000022415
   3         0.000000720         0.000000983        -0.000004616
   4         0.000001345        -0.000000301         0.000001246
   5        -0.000000528        -0.000000707         0.000000280
   6        -0.000000618         0.000001044        -0.000001263

 Nuclear force contribution to virial =        -0.000030382

 Generated  12 symmetrical displacements

 Freezing grid

 Numerically approximating hessian using forward gradient differences
 Task   1   Incrementing symmetrical displacement  1  by    1.0
 Task   2   Incrementing symmetrical displacement  2  by    1.0
 Task   3   Incrementing symmetrical displacement  3  by    1.0
 Task   4   Incrementing symmetrical displacement  4  by    1.0
 Task   5   Incrementing symmetrical displacement  5  by    1.0
 Task   6   Incrementing symmetrical displacement  6  by    1.0
 Task   7   Incrementing symmetrical displacement  7  by    1.0
 Task   8   Incrementing symmetrical displacement  8  by    1.0
 Task   9   Incrementing symmetrical displacement  9  by    1.0
 Task  10   Incrementing symmetrical displacement 10  by    1.0
 Task  11   Incrementing symmetrical displacement 11  by    1.0
 Task  12   Incrementing symmetrical displacement 12  by    1.0

 Task list generated. Total number of displacements:     12

 Starting task   1.  CPU=     0.00 sec, Elapsed=     0.00 sec
 Incrementing symmetrical displacement  1 by 1.0000


 Recomputing integrals since geometry changed

1PROGRAM * SEWARD (Integral evaluation for generally contracted gaussian basis sets)     Author: Roland Lindh, 1990

 Geometry written to block  1 of record 700


 Point group  C1  



 ATOMIC COORDINATES

 NR  ATOM    CHARGE       X              Y              Z

   1  H       1.00   -1.576681694    0.006794867   -1.963474482
   2  O       8.00    0.124417296   -0.005457496   -1.308488795
   3  C       6.00   -0.023116523   -0.001037492    1.371972889
   4  H       1.00   -1.986028730   -0.002023641    2.084476568
   5  H       1.00    0.930229770    1.689469135    2.147686343
   6  H       1.00    0.933024754   -1.687749533    2.152476818

 Bond lengths in Bohr (Angstrom)

 1-2  1.822880727  2-3  2.684522416  3-4  2.088225754  3-5  2.090074921  3-6  2.090069385
     ( 0.964626939)     ( 1.420588085)     ( 1.105041480)     ( 1.106020017)     ( 1.106017088)

 Bond angles

  1-2-3  107.90702469   2-3-4  113.10035693   2-3-5  110.29440904   2-3-6  110.26725980

  4-3-5  107.60820141   4-3-6  107.59093291   5-3-6  107.78645765

 NUCLEAR CHARGE:                   18
 NUMBER OF PRIMITIVE AOS:          82
 NUMBER OF SYMMETRY AOS:           80
 NUMBER OF CONTRACTIONS:           48   (  48A   )
 NUMBER OF CORE ORBITALS:           2   (   2A   )
 NUMBER OF VALENCE ORBITALS:       12   (  12A   )


 NUCLEAR REPULSION ENERGY   40.11181704

 Eigenvalues of metric

         1 0.981E-02 0.176E-01 0.347E-01 0.389E-01 0.396E-01 0.498E-01 0.510E-01 0.551E-01


 Contracted 2-electron integrals neglected if value below      1.0D-14
 AO integral compression algorithm  1   Integral accuracy      1.0D-14

     7.340 MB (compressed) written to integral file (100.0%)

     Node minimum: 1.049 MB, node maximum: 1.049 MB


 NUMBER OF SORTED TWO-ELECTRON INTEGRALS:      99372.     BUFFER LENGTH:  32768
 NUMBER OF SEGMENTS:   1  SEGMENT LENGTH:      99372      RECORD LENGTH: 524288

 Memory used in sort:       0.66 MW

 SORT1 READ      839336. AND WROTE       97847. INTEGRALS IN      1 RECORDS. CPU TIME:     0.02 SEC, REAL TIME:     0.02 SEC
 SORT2 READ      682150. AND WROTE      692076. INTEGRALS IN     28 RECORDS. CPU TIME:     0.01 SEC, REAL TIME:     0.01 SEC

 Node minimum:       98364.  Node maximum:       99372. integrals

 OPERATOR DM      FOR CENTER  0  COORDINATES:    0.000000    0.000000    0.000000
 Density functional group B3LYP3=B88+DIRAC+LYP+VWN3
 Functional: B88(Automatically generated (new) B88)                            Gradient terms: 1
 Functional: DIRAC(Automatically generated (new) DIRAC)                        Gradient terms: 0
 Functional: LYP(Automatically generated (new) LYP)                            Gradient terms: 1
 Functional: VWN3(Automatically generated (new) VWN3)                          Gradient terms: 0
 Use grid at  1800.2
 

 Exact exchange will be calculated, factor:  0.2000

 Functional: B88                       Factor:  0.7200
 Functional: DIRAC                     Factor:  0.0800
 Functional: LYP                       Factor:  0.8100
 Functional: VWN3                      Factor:  0.1900
 
 Computed new grid on record 1800.1 in CPU time    0.0
   42186 words reserved for DFT integration

 PROGRAM * RKS-SCF (Restricted closed shell Kohn-Sham)     Authors: W. Meyer, H.-J. Werner, P.J. Knowles, 1993

 NUMBER OF ELECTRONS:       9+    9-    SPACE SYMMETRY=1    SPIN SYMMETRY: Singlet 
 CONVERGENCE THRESHOLDS:    1.00E-10 (Density)    1.00E-10 (Energy)
 MAX. NUMBER OF ITERATIONS:      300
 INTERPOLATION TYPE:            DIIS
 INTERPOLATION STEPS:              2 (START)      1 (STEP)
 LEVEL SHIFTS:                  0.00 (CLOSED)  0.00 (OPEN) 

 Number of closed-shell orbitals:    9 (   9 )


 Use fine grid record 1800.2 for energy threshold  1.0D-06
 Molecular orbitals read from record     2100.2  Type=RKS/CANONICAL (state 1.1)

 Molecular orbital dump at record        2100.1

 ITERATION    DDIFF          GRAD             ENERGY        2-EL.EN.            DIPOLE MOMENTS         DIIS   ORB.
    1      0.000D+00      0.000D+00      -115.72067015    186.825483   -0.59256    0.00397    0.27872    0    start
    2      0.000D+00      0.124D-03      -115.72067819    186.825221   -0.59252    0.00476    0.27871    1    diag
    3      0.341D-03      0.188D-04      -115.72067830    186.825592   -0.59255    0.00415    0.27874    2    diag
    4      0.226D-04      0.536D-05      -115.72067830    186.825166   -0.59252    0.00433    0.27870    3    diag
    5      0.584D-05      0.108D-05      -115.72067830    186.825544   -0.59255    0.00430    0.27874    4    diag
    6      0.206D-05      0.812D-06      -115.72067830    186.825364   -0.59253    0.00430    0.27872    5    diag
    7      0.966D-06      0.722D-07      -115.72067830    186.825364   -0.59253    0.00430    0.27872    6    diag
    8      0.144D-06      0.165D-07      -115.72067830    186.825371   -0.59253    0.00430    0.27872    7    orth
    9      0.421D-07      0.907D-08      -115.72067830    186.825368   -0.59253    0.00430    0.27872    8    diag
   10      0.156D-07      0.231D-09      -115.72067830    186.825368   -0.59253    0.00430    0.27872    9    diag
   11      0.688D-09      0.132D-10      -115.72067830    186.825368   -0.59253    0.00430    0.27872    9    diag
   12      0.440D-10      0.196D-11      -115.72067830    186.825368   -0.59253    0.00430    0.27872    0    orth

 Final occupancy:   9

 !RKS STATE 1.1 Energy               -115.720678304570
 Nuclear energy                        40.11181704
 One-electron energy                 -236.69203112
 Two-electron energy                   93.41268408
 SCF exchange energy                  -14.83649534     Factor= 0.2000
 Density functional                   -12.55314830     B88=-14.87592048 DIRAC=-13.41342238 LYP= -0.59559909 VWN3= -1.51040266
 Virial quotient                       -1.00655243
 !RKS STATE 1.1 Dipole moment          -0.59253443     0.00429925     0.27872224
 Dipole moment /Debye                  -1.50597367     0.01092690     0.70839488

 Orbital energies:

         1.1          2.1          3.1          4.1          5.1          6.1          7.1          8.1          9.1         10.1
    -19.128035   -10.227075    -1.009110    -0.675486    -0.500811    -0.429232    -0.418558    -0.327222    -0.262187     0.051269

        11.1
      0.090841

 HOMO      9.1    -0.262187 =      -7.1345eV
 LUMO     10.1     0.051269 =       1.3951eV
 LUMO-HOMO         0.313456 =       8.5296eV


 **********************************************************************************************************************************
 DATASETS  * FILE   NREC   LENGTH (MB)   RECORD NAMES
              1      20       19.44       500      610      700      900      950      970     1000      129      960     1100   
                                          VAR    BASINP    GEOM    SYMINP    ZMAT    AOBASIS   BASIS     P2S    ABASIS      S 
                                         1400     1410     1200     1210     1080     1600     1650     1700     1800     2100   
                                           T        V       H0       H01     AOSYM     SMH    MOLCAS    OPER     GRID      RKS  

              2       7        0.57       700     1000      520     1800     2100     5300     5500   
                                         GEOM     BASIS   MCVARS    GRID      RKS     HESS     HINFO   

 PROGRAMS   *        TOTAL       RKS       RKS       INT
 CPU TIMES  *         6.45      0.47      0.27      0.26
 REAL TIME  *         7.96 SEC
 DISK USED  *       176.31 MB      
 SF USED    *         0.01 MB      
 GA USED    *         0.78 MB       (max)       0.78 MB       (current)
 **********************************************************************************************************************************
1PROGRAM * ALASKA (Gradient of the energy)     Author: R. Lindh

 Orbitals from record         2100.1

 Number of closed-shell orbitals:  9 (  9 )
 Number of occupied orbitals:      9 (  9 )

 Number of electrons= 18     Singlet     Space symmetry=1      Wavefunction type: CLOSED          

 Gradient contributions of integration grid neglected (GRIDGRAD=0).

 DFT GRADIENT, EXFAC=     0.200

 RKS GRADIENT FOR STATE 1.1

 Atom          dE/dx               dE/dy               dE/dz

   1        -0.000025958        -0.000038500         0.000023069
   2         0.000033577         0.000105686        -0.000016753
   3        -0.000000614        -0.000031018        -0.000004960
   4         0.000001303         0.000009792         0.000001067
   5         0.000003517        -0.000023115        -0.000054365
   6        -0.000003922        -0.000022826         0.000054517

 Nuclear force contribution to virial =         0.000013422
 Starting task   2.  CPU=     3.09 sec, Elapsed=     3.09 sec
 Incrementing symmetrical displacement  2 by 1.0000


 Recomputing integrals since geometry changed

1PROGRAM * SEWARD (Integral evaluation for generally contracted gaussian basis sets)     Author: Roland Lindh, 1990

 Geometry written to block  1 of record 700


 Point group  C1  



 ATOMIC COORDINATES

 NR  ATOM    CHARGE       X              Y              Z

   1  H       1.00   -1.577440575    0.000001593   -1.964855112
   2  O       8.00    0.123102384    0.000000026   -1.308441360
   3  C       6.00   -0.025632350    0.000000108    1.371945681
   4  H       1.00   -1.989192677    0.000174436    2.082288805
   5  H       1.00    0.935655255    1.684142759    2.151864280
   6  H       1.00    0.935352836   -1.684323082    2.151847046

 Bond lengths in Bohr (Angstrom)

 1-2  1.822834432  2-3  2.684510516  3-4  2.088098786  3-5  2.090139553  3-6  2.090139535
     ( 0.964602441)     ( 1.420581788)     ( 1.104974292)     ( 1.106054219)     ( 1.106054209)

 Bond angles

  1-2-3  107.93062373   2-3-4  113.06432699   2-3-5  110.30926002   2-3-6  110.30924401

  4-3-5  107.78705006   4-3-6  107.78712800   5-3-6  107.37503258

 NUCLEAR CHARGE:                   18
 NUMBER OF PRIMITIVE AOS:          82
 NUMBER OF SYMMETRY AOS:           80
 NUMBER OF CONTRACTIONS:           48   (  48A   )
 NUMBER OF CORE ORBITALS:           2   (   2A   )
 NUMBER OF VALENCE ORBITALS:       12   (  12A   )


 NUCLEAR REPULSION ENERGY   40.11136328

 Eigenvalues of metric

         1 0.982E-02 0.176E-01 0.346E-01 0.389E-01 0.396E-01 0.500E-01 0.510E-01 0.550E-01


 Contracted 2-electron integrals neglected if value below      1.0D-14
 AO integral compression algorithm  1   Integral accuracy      1.0D-14

     7.340 MB (compressed) written to integral file ( 93.3%)

     Node minimum: 1.049 MB, node maximum: 1.049 MB


 NUMBER OF SORTED TWO-ELECTRON INTEGRALS:      99372.     BUFFER LENGTH:  32768
 NUMBER OF SEGMENTS:   1  SEGMENT LENGTH:      99372      RECORD LENGTH: 524288

 Memory used in sort:       0.66 MW

 SORT1 READ      839336. AND WROTE       97772. INTEGRALS IN      1 RECORDS. CPU TIME:     0.01 SEC, REAL TIME:     0.02 SEC
 SORT2 READ      681800. AND WROTE      692076. INTEGRALS IN     28 RECORDS. CPU TIME:     0.01 SEC, REAL TIME:     0.01 SEC

 Node minimum:       98364.  Node maximum:       99372. integrals

 OPERATOR DM      FOR CENTER  0  COORDINATES:    0.000000    0.000000    0.000000
 Density functional group B3LYP3=B88+DIRAC+LYP+VWN3
 Functional: B88(Automatically generated (new) B88)                            Gradient terms: 1
 Functional: DIRAC(Automatically generated (new) DIRAC)                        Gradient terms: 0
 Functional: LYP(Automatically generated (new) LYP)                            Gradient terms: 1
 Functional: VWN3(Automatically generated (new) VWN3)                          Gradient terms: 0
 Use grid at  1800.2
 

 Exact exchange will be calculated, factor:  0.2000

 Functional: B88                       Factor:  0.7200
 Functional: DIRAC                     Factor:  0.0800
 Functional: LYP                       Factor:  0.8100
 Functional: VWN3                      Factor:  0.1900
 
 Computed new grid on record 1800.1 in CPU time    0.0
   42186 words reserved for DFT integration

 PROGRAM * RKS-SCF (Restricted closed shell Kohn-Sham)     Authors: W. Meyer, H.-J. Werner, P.J. Knowles, 1993

 NUMBER OF ELECTRONS:       9+    9-    SPACE SYMMETRY=1    SPIN SYMMETRY: Singlet 
 CONVERGENCE THRESHOLDS:    1.00E-10 (Density)    1.00E-10 (Energy)
 MAX. NUMBER OF ITERATIONS:      300
 INTERPOLATION TYPE:            DIIS
 INTERPOLATION STEPS:              2 (START)      1 (STEP)
 LEVEL SHIFTS:                  0.00 (CLOSED)  0.00 (OPEN) 

 Number of closed-shell orbitals:    9 (   9 )


 Use fine grid record 1800.2 for energy threshold  1.0D-06
 Molecular orbitals read from record     2100.2  Type=RKS/CANONICAL (state 1.1)

 Molecular orbital dump at record        2100.1

 ITERATION    DDIFF          GRAD             ENERGY        2-EL.EN.            DIPOLE MOMENTS         DIIS   ORB.
    1      0.000D+00      0.000D+00      -115.72067164    186.823983   -0.59200    0.00001    0.27848    0    start
    2      0.000D+00      0.500D-04      -115.72067311    186.824835   -0.59190    0.00001    0.27826    1    diag
    3      0.184D-03      0.456D-05      -115.72067312    186.823356   -0.59192    0.00001    0.27821    2    diag
    4      0.152D-04      0.348D-05      -115.72067312    186.824530   -0.59198    0.00001    0.27829    3    diag
    5      0.533D-05      0.125D-05      -115.72067313    186.824260   -0.59195    0.00001    0.27826    4    diag
    6      0.152D-05      0.162D-06      -115.72067313    186.824226   -0.59196    0.00001    0.27826    5    diag
    7      0.325D-06      0.673D-07      -115.72067313    186.824245   -0.59196    0.00001    0.27826    6    diag
    8      0.126D-06      0.797D-08      -115.72067313    186.824243   -0.59196    0.00001    0.27826    7    orth
    9      0.159D-07      0.770D-09      -115.72067313    186.824243   -0.59196    0.00001    0.27826    8    diag
   10      0.145D-08      0.132D-09      -115.72067313    186.824243   -0.59196    0.00001    0.27826    9    diag
   11      0.184D-09      0.152D-10      -115.72067313    186.824243   -0.59196    0.00001    0.27826    9    diag
   12      0.201D-10      0.246D-11      -115.72067313    186.824243   -0.59196    0.00001    0.27826    0    orth

 Final occupancy:   9

 !RKS STATE 1.1 Energy               -115.720673125267
 Nuclear energy                        40.11136328
 One-electron energy                 -236.69102063
 Two-electron energy                   93.41212163
 SCF exchange energy                  -14.83647678     Factor= 0.2000
 Density functional                   -12.55313741     B88=-14.87590857 DIRAC=-13.41340848 LYP= -0.59559784 VWN3= -1.51040164
 Virial quotient                       -1.00655369
 !RKS STATE 1.1 Dipole moment          -0.59195735     0.00000641     0.27826083
 Dipole moment /Debye                  -1.50450697     0.00001628     0.70722216

 Orbital energies:

         1.1          2.1          3.1          4.1          5.1          6.1          7.1          8.1          9.1         10.1
    -19.128047   -10.227085    -1.009112    -0.675521    -0.500800    -0.428683    -0.419115    -0.327355    -0.262047     0.051250

        11.1
      0.090827

 HOMO      9.1    -0.262047 =      -7.1307eV
 LUMO     10.1     0.051250 =       1.3946eV
 LUMO-HOMO         0.313296 =       8.5252eV


 **********************************************************************************************************************************
 DATASETS  * FILE   NREC   LENGTH (MB)   RECORD NAMES
              1      20       19.44       500      610      700      900      950      970     1000      129      960     1100   
                                          VAR    BASINP    GEOM    SYMINP    ZMAT    AOBASIS   BASIS     P2S    ABASIS      S 
                                         1400     1410     1200     1210     1080     1600     1650     1700     1800     2100   
                                           T        V       H0       H01     AOSYM     SMH    MOLCAS    OPER     GRID      RKS  

              2       7        0.57       700     1000      520     1800     2100     5300     5500   
                                         GEOM     BASIS   MCVARS    GRID      RKS     HESS     HINFO   

 PROGRAMS   *        TOTAL       RKS       RKS       INT
 CPU TIMES  *         9.40      0.43      0.27      0.26
 REAL TIME  *        10.96 SEC
 DISK USED  *       176.31 MB      
 SF USED    *         0.01 MB      
 GA USED    *         0.78 MB       (max)       0.78 MB       (current)
 **********************************************************************************************************************************
1PROGRAM * ALASKA (Gradient of the energy)     Author: R. Lindh

 Orbitals from record         2100.1

 Number of closed-shell orbitals:  9 (  9 )
 Number of occupied orbitals:      9 (  9 )

 Number of electrons= 18     Singlet     Space symmetry=1      Wavefunction type: CLOSED          

 Gradient contributions of integration grid neglected (GRIDGRAD=0).

 DFT GRADIENT, EXFAC=     0.200

 RKS GRADIENT FOR STATE 1.1

 Atom          dE/dx               dE/dy               dE/dz

   1        -0.000000855         0.000000352        -0.000031903
   2        -0.000079201        -0.000001390        -0.000033326
   3        -0.000621040         0.000000978        -0.000048150
   4        -0.000170981        -0.000000210        -0.000200208
   5         0.000440093        -0.000394436         0.000159138
   6         0.000440160         0.000394691         0.000157551

 Nuclear force contribution to virial =         0.000146847
 Starting task   3.  CPU=     6.10 sec, Elapsed=     6.09 sec
 Incrementing symmetrical displacement  3 by 1.0000


 Recomputing integrals since geometry changed

1PROGRAM * SEWARD (Integral evaluation for generally contracted gaussian basis sets)     Author: Roland Lindh, 1990

 Geometry written to block  1 of record 700


 Point group  C1  



 ATOMIC COORDINATES

 NR  ATOM    CHARGE       X              Y              Z

   1  H       1.00   -1.576681841    0.000071143   -1.963474109
   2  O       8.00    0.124417324   -0.001868847   -1.308488822
   3  C       6.00   -0.023116314   -0.002517588    1.371972875
   4  H       1.00   -1.986027624    0.006488594    2.084476669
   5  H       1.00    0.927429745    1.687521341    2.152376391
   6  H       1.00    0.935823584   -1.689698804    2.147786338

 Bond lengths in Bohr (Angstrom)

 1-2  1.822840602  2-3  2.684518859  3-4  2.088244137  3-5  2.090167228  3-6  2.089983903
     ( 0.964605706)     ( 1.420586202)     ( 1.105051208)     ( 1.106068864)     ( 1.105971853)

 Bond angles

  1-2-3  107.90812903   2-3-4  113.10015578   2-3-5  110.34158987   2-3-6  110.21987530

  4-3-5  107.25326819   4-3-6  107.94570872   5-3-6  107.78668831

 NUCLEAR CHARGE:                   18
 NUMBER OF PRIMITIVE AOS:          82
 NUMBER OF SYMMETRY AOS:           80
 NUMBER OF CONTRACTIONS:           48   (  48A   )
 NUMBER OF CORE ORBITALS:           2   (   2A   )
 NUMBER OF VALENCE ORBITALS:       12   (  12A   )


 NUCLEAR REPULSION ENERGY   40.11190851

 Eigenvalues of metric

         1 0.981E-02 0.176E-01 0.347E-01 0.389E-01 0.396E-01 0.498E-01 0.510E-01 0.551E-01


 Contracted 2-electron integrals neglected if value below      1.0D-14
 AO integral compression algorithm  1   Integral accuracy      1.0D-14

     7.078 MB (compressed) written to integral file (100.0%)

     Node minimum: 0.786 MB, node maximum: 1.049 MB


 NUMBER OF SORTED TWO-ELECTRON INTEGRALS:      99372.     BUFFER LENGTH:  32768
 NUMBER OF SEGMENTS:   1  SEGMENT LENGTH:      99372      RECORD LENGTH: 524288

 Memory used in sort:       0.66 MW

 SORT1 READ      839336. AND WROTE       97846. INTEGRALS IN      1 RECORDS. CPU TIME:     0.02 SEC, REAL TIME:     0.02 SEC
 SORT2 READ      682149. AND WROTE      692076. INTEGRALS IN     21 RECORDS. CPU TIME:     0.00 SEC, REAL TIME:     0.01 SEC

 Node minimum:       98364.  Node maximum:       99372. integrals

 OPERATOR DM      FOR CENTER  0  COORDINATES:    0.000000    0.000000    0.000000
 Density functional group B3LYP3=B88+DIRAC+LYP+VWN3
 Functional: B88(Automatically generated (new) B88)                            Gradient terms: 1
 Functional: DIRAC(Automatically generated (new) DIRAC)                        Gradient terms: 0
 Functional: LYP(Automatically generated (new) LYP)                            Gradient terms: 1
 Functional: VWN3(Automatically generated (new) VWN3)                          Gradient terms: 0
 Use grid at  1800.2
 

 Exact exchange will be calculated, factor:  0.2000

 Functional: B88                       Factor:  0.7200
 Functional: DIRAC                     Factor:  0.0800
 Functional: LYP                       Factor:  0.8100
 Functional: VWN3                      Factor:  0.1900
 
 Computed new grid on record 1800.1 in CPU time    0.0
   42186 words reserved for DFT integration

 PROGRAM * RKS-SCF (Restricted closed shell Kohn-Sham)     Authors: W. Meyer, H.-J. Werner, P.J. Knowles, 1993

 NUMBER OF ELECTRONS:       9+    9-    SPACE SYMMETRY=1    SPIN SYMMETRY: Singlet 
 CONVERGENCE THRESHOLDS:    1.00E-10 (Density)    1.00E-10 (Energy)
 MAX. NUMBER OF ITERATIONS:      300
 INTERPOLATION TYPE:            DIIS
 INTERPOLATION STEPS:              2 (START)      1 (STEP)
 LEVEL SHIFTS:                  0.00 (CLOSED)  0.00 (OPEN) 

 Number of closed-shell orbitals:    9 (   9 )


 Use fine grid record 1800.2 for energy threshold  1.0D-06
 Molecular orbitals read from record     2100.2  Type=RKS/CANONICAL (state 1.1)

 Molecular orbital dump at record        2100.1

 ITERATION    DDIFF          GRAD             ENERGY        2-EL.EN.            DIPOLE MOMENTS         DIIS   ORB.
    1      0.000D+00      0.000D+00      -115.72067153    186.825559   -0.59255    0.00088    0.27872    0    start
    2      0.000D+00      0.512D-04      -115.72067311    186.825491   -0.59254    0.00125    0.27872    1    diag
    3      0.190D-03      0.467D-05      -115.72067312    186.825543   -0.59254    0.00103    0.27872    2    diag
    4      0.141D-04      0.111D-05      -115.72067312    186.825500   -0.59254    0.00109    0.27872    3    diag
    5      0.176D-05      0.299D-06      -115.72067312    186.825523   -0.59254    0.00108    0.27872    4    diag
    6      0.517D-06      0.111D-06      -115.72067312    186.825519   -0.59254    0.00108    0.27872    5    diag
    7      0.212D-06      0.444D-07      -115.72067312    186.825513   -0.59254    0.00108    0.27872    6    diag
    8      0.644D-07      0.118D-07      -115.72067312    186.825517   -0.59254    0.00108    0.27872    7    orth
    9      0.186D-07      0.188D-08      -115.72067312    186.825517   -0.59254    0.00108    0.27872    8    diag
   10      0.365D-08      0.172D-09      -115.72067312    186.825517   -0.59254    0.00108    0.27872    9    diag
   11      0.390D-09      0.214D-10      -115.72067312    186.825517   -0.59254    0.00108    0.27872    9    diag
   12      0.264D-10      0.187D-11      -115.72067312    186.825517   -0.59254    0.00108    0.27872    0    orth

 Final occupancy:   9

 !RKS STATE 1.1 Energy               -115.720673121607
 Nuclear energy                        40.11190851
 One-electron energy                 -236.69218775
 Two-electron energy                   93.41275835
 SCF exchange energy                  -14.83650036     Factor= 0.2000
 Density functional                   -12.55315223     B88=-14.87592502 DIRAC=-13.41342736 LYP= -0.59559935 VWN3= -1.51040290
 Virial quotient                       -1.00655221
 !RKS STATE 1.1 Dipole moment          -0.59254218     0.00107612     0.27871659
 Dipole moment /Debye                  -1.50599336     0.00273505     0.70838050

 Orbital energies:

         1.1          2.1          3.1          4.1          5.1          6.1          7.1          8.1          9.1         10.1
    -19.128033   -10.227077    -1.009114    -0.675489    -0.500816    -0.429237    -0.418552    -0.327219    -0.262186     0.051271

        11.1
      0.090841

 HOMO      9.1    -0.262186 =      -7.1344eV
 LUMO     10.1     0.051271 =       1.3952eV
 LUMO-HOMO         0.313457 =       8.5296eV


 **********************************************************************************************************************************
 DATASETS  * FILE   NREC   LENGTH (MB)   RECORD NAMES
              1      20       19.44       500      610      700      900      950      970     1000      129      960     1100   
                                          VAR    BASINP    GEOM    SYMINP    ZMAT    AOBASIS   BASIS     P2S    ABASIS      S 
                                         1400     1410     1200     1210     1080     1600     1650     1700     1800     2100   
                                           T        V       H0       H01     AOSYM     SMH    MOLCAS    OPER     GRID      RKS  

              2       7        0.57       700     1000      520     1800     2100     5300     5500   
                                         GEOM     BASIS   MCVARS    GRID      RKS     HESS     HINFO   

 PROGRAMS   *        TOTAL       RKS       RKS       INT
 CPU TIMES  *        12.34      0.43      0.27      0.26
 REAL TIME  *        13.97 SEC
 DISK USED  *       176.31 MB      
 SF USED    *         0.01 MB      
 GA USED    *         0.78 MB       (max)       0.78 MB       (current)
 **********************************************************************************************************************************
1PROGRAM * ALASKA (Gradient of the energy)     Author: R. Lindh

 Orbitals from record         2100.1

 Number of closed-shell orbitals:  9 (  9 )
 Number of occupied orbitals:      9 (  9 )

 Number of electrons= 18     Singlet     Space symmetry=1      Wavefunction type: CLOSED          

 Gradient contributions of integration grid neglected (GRIDGRAD=0).

 DFT GRADIENT, EXFAC=     0.200

 RKS GRADIENT FOR STATE 1.1

 Atom          dE/dx               dE/dy               dE/dz

   1        -0.000006162        -0.000006448         0.000029140
   2         0.000013077        -0.000053838        -0.000022262
   3         0.000003826        -0.000597794        -0.000006058
   4        -0.000000836         0.000645870         0.000002475
   5        -0.000372719         0.000005878         0.000187802
   6         0.000370716         0.000005915        -0.000188510

 Nuclear force contribution to virial =        -0.000012009
 Starting task   4.  CPU=     9.05 sec, Elapsed=     9.05 sec
 Incrementing symmetrical displacement  4 by 1.0000


 Recomputing integrals since geometry changed

1PROGRAM * SEWARD (Integral evaluation for generally contracted gaussian basis sets)     Author: Roland Lindh, 1990

 Geometry written to block  1 of record 700


 Point group  C1  



 ATOMIC COORDINATES

 NR  ATOM    CHARGE       X              Y              Z

   1  H       1.00   -1.573870730    0.000001426   -1.967902536
   2  O       8.00    0.124945948    0.000000311   -1.307473912
   3  C       6.00   -0.026464129   -0.000000068    1.372752368
   4  H       1.00   -1.986848326    0.000173906    2.091426348
   5  H       1.00    0.932192862    1.687910918    2.147931458
   6  H       1.00    0.931889248   -1.688090653    2.147915615

 Bond lengths in Bohr (Angstrom)

 1-2  1.822674977  2-3  2.684499568  3-4  2.087965162  3-5  2.090207967  3-6  2.090207902
     ( 0.964518061)     ( 1.420575994)     ( 1.104903581)     ( 1.106090422)     ( 1.106090388)

 Bond angles

  1-2-3  108.01070290   2-3-4  113.36615194   2-3-5  110.14539219   2-3-6  110.14544490

  4-3-5  107.63187399   4-3-6  107.63192312   5-3-6  107.71945308

 NUCLEAR CHARGE:                   18
 NUMBER OF PRIMITIVE AOS:          82
 NUMBER OF SYMMETRY AOS:           80
 NUMBER OF CONTRACTIONS:           48   (  48A   )
 NUMBER OF CORE ORBITALS:           2   (   2A   )
 NUMBER OF VALENCE ORBITALS:       12   (  12A   )


 NUCLEAR REPULSION ENERGY   40.11108864

 Eigenvalues of metric

         1 0.982E-02 0.176E-01 0.346E-01 0.389E-01 0.396E-01 0.499E-01 0.510E-01 0.551E-01


 Contracted 2-electron integrals neglected if value below      1.0D-14
 AO integral compression algorithm  1   Integral accuracy      1.0D-14

     7.078 MB (compressed) written to integral file ( 98.1%)

     Node minimum: 0.786 MB, node maximum: 1.049 MB


 NUMBER OF SORTED TWO-ELECTRON INTEGRALS:      99372.     BUFFER LENGTH:  32768
 NUMBER OF SEGMENTS:   1  SEGMENT LENGTH:      99372      RECORD LENGTH: 524288

 Memory used in sort:       0.66 MW

 SORT1 READ      839336. AND WROTE       97817. INTEGRALS IN      1 RECORDS. CPU TIME:     0.01 SEC, REAL TIME:     0.02 SEC
 SORT2 READ      682019. AND WROTE      692076. INTEGRALS IN     21 RECORDS. CPU TIME:     0.01 SEC, REAL TIME:     0.01 SEC

 Node minimum:       98364.  Node maximum:       99372. integrals

 OPERATOR DM      FOR CENTER  0  COORDINATES:    0.000000    0.000000    0.000000
 Density functional group B3LYP3=B88+DIRAC+LYP+VWN3
 Functional: B88(Automatically generated (new) B88)                            Gradient terms: 1
 Functional: DIRAC(Automatically generated (new) DIRAC)                        Gradient terms: 0
 Functional: LYP(Automatically generated (new) LYP)                            Gradient terms: 1
 Functional: VWN3(Automatically generated (new) VWN3)                          Gradient terms: 0
 Use grid at  1800.2
 

 Exact exchange will be calculated, factor:  0.2000

 Functional: B88                       Factor:  0.7200
 Functional: DIRAC                     Factor:  0.0800
 Functional: LYP                       Factor:  0.8100
 Functional: VWN3                      Factor:  0.1900
 
 Computed new grid on record 1800.1 in CPU time    0.0
   42186 words reserved for DFT integration

 PROGRAM * RKS-SCF (Restricted closed shell Kohn-Sham)     Authors: W. Meyer, H.-J. Werner, P.J. Knowles, 1993

 NUMBER OF ELECTRONS:       9+    9-    SPACE SYMMETRY=1    SPIN SYMMETRY: Singlet 
 CONVERGENCE THRESHOLDS:    1.00E-10 (Density)    1.00E-10 (Energy)
 MAX. NUMBER OF ITERATIONS:      300
 INTERPOLATION TYPE:            DIIS
 INTERPOLATION STEPS:              2 (START)      1 (STEP)
 LEVEL SHIFTS:                  0.00 (CLOSED)  0.00 (OPEN) 

 Number of closed-shell orbitals:    9 (   9 )


 Use fine grid record 1800.2 for energy threshold  1.0D-06
 Molecular orbitals read from record     2100.2  Type=RKS/CANONICAL (state 1.1)

 Molecular orbital dump at record        2100.1

 ITERATION    DDIFF          GRAD             ENERGY        2-EL.EN.            DIPOLE MOMENTS         DIIS   ORB.
    1      0.000D+00      0.000D+00      -115.72067141    186.823963   -0.59225    0.00001    0.27757    0    start
    2      0.000D+00      0.744D-04      -115.72067427    186.825969   -0.59272    0.00001    0.27676    1    diag
    3      0.186D-03      0.976D-05      -115.72067429    186.823583   -0.59257    0.00001    0.27703    2    diag
    4      0.229D-04      0.744D-05      -115.72067431    186.825075   -0.59264    0.00001    0.27693    3    diag
    5      0.134D-04      0.175D-05      -115.72067431    186.825034   -0.59266    0.00001    0.27694    4    diag
    6      0.292D-05      0.507D-06      -115.72067431    186.824853   -0.59265    0.00001    0.27693    5    diag
    7      0.754D-06      0.178D-06      -115.72067431    186.824912   -0.59265    0.00001    0.27694    6    diag
    8      0.242D-06      0.814D-08      -115.72067431    186.824911   -0.59265    0.00001    0.27694    7    orth
    9      0.133D-07      0.197D-08      -115.72067431    186.824911   -0.59265    0.00001    0.27694    8    diag
   10      0.272D-08      0.164D-09      -115.72067431    186.824911   -0.59265    0.00001    0.27694    9    diag
   11      0.338D-09      0.322D-10      -115.72067431    186.824911   -0.59265    0.00001    0.27694    9    diag
   12      0.498D-10      0.221D-11      -115.72067431    186.824911   -0.59265    0.00001    0.27694    0    orth

 Final occupancy:   9

 !RKS STATE 1.1 Energy               -115.720674312233
 Nuclear energy                        40.11108864
 One-electron energy                 -236.69105484
 Two-electron energy                   93.41245556
 SCF exchange energy                  -14.83652048     Factor= 0.2000
 Density functional                   -12.55316367     B88=-14.87594095 DIRAC=-13.41343976 LYP= -0.59559821 VWN3= -1.51040240
 Virial quotient                       -1.00655155
 !RKS STATE 1.1 Dipole moment          -0.59264884     0.00000623     0.27693535
 Dipole moment /Debye                  -1.50626444     0.00001583     0.70385336

 Orbital energies:

         1.1          2.1          3.1          4.1          5.1          6.1          7.1          8.1          9.1         10.1
    -19.128004   -10.227039    -1.009055    -0.675549    -0.500880    -0.429125    -0.418374    -0.327384    -0.262056     0.051471

        11.1
      0.090874

 HOMO      9.1    -0.262056 =      -7.1309eV
 LUMO     10.1     0.051471 =       1.4006eV
 LUMO-HOMO         0.313527 =       8.5315eV


 **********************************************************************************************************************************
 DATASETS  * FILE   NREC   LENGTH (MB)   RECORD NAMES
              1      20       19.44       500      610      700      900      950      970     1000      129      960     1100   
                                          VAR    BASINP    GEOM    SYMINP    ZMAT    AOBASIS   BASIS     P2S    ABASIS      S 
                                         1400     1410     1200     1210     1080     1600     1650     1700     1800     2100   
                                           T        V       H0       H01     AOSYM     SMH    MOLCAS    OPER     GRID      RKS  

              2       7        0.57       700     1000      520     1800     2100     5300     5500   
                                         GEOM     BASIS   MCVARS    GRID      RKS     HESS     HINFO   

 PROGRAMS   *        TOTAL       RKS       RKS       INT
 CPU TIMES  *        15.23      0.41      0.27      0.26
 REAL TIME  *        16.91 SEC
 DISK USED  *       176.31 MB      
 SF USED    *         0.01 MB      
 GA USED    *         0.78 MB       (max)       0.78 MB       (current)
 **********************************************************************************************************************************
1PROGRAM * ALASKA (Gradient of the energy)     Author: R. Lindh

 Orbitals from record         2100.1

 Number of closed-shell orbitals:  9 (  9 )
 Number of occupied orbitals:      9 (  9 )

 Number of electrons= 18     Singlet     Space symmetry=1      Wavefunction type: CLOSED          

 Gradient contributions of integration grid neglected (GRIDGRAD=0).

 DFT GRADIENT, EXFAC=     0.200

 RKS GRADIENT FOR STATE 1.1

 Atom          dE/dx               dE/dy               dE/dz

   1         0.000158442         0.000000363        -0.000036086
   2         0.000269455        -0.000001386         0.000012773
   3        -0.000903553         0.000000916        -0.000005355
   4         0.000167829        -0.000000267         0.000345861
   5         0.000157593         0.000012629        -0.000156892
   6         0.000157539        -0.000012271        -0.000158379

 Nuclear force contribution to virial =        -0.000096364
 Starting task   5.  CPU=    12.05 sec, Elapsed=    12.04 sec
 Incrementing symmetrical displacement  5 by 1.0000


 Recomputing integrals since geometry changed

1PROGRAM * SEWARD (Integral evaluation for generally contracted gaussian basis sets)     Author: Roland Lindh, 1990

 Geometry written to block  1 of record 700


 Point group  C1  



 ATOMIC COORDINATES

 NR  ATOM    CHARGE       X              Y              Z

   1  H       1.00   -1.576681829    0.000311156   -1.963474340
   2  O       8.00    0.124417238    0.005263164   -1.308488803
   3  C       6.00   -0.023116418   -0.004410209    1.371972890
   4  H       1.00   -1.986028282    0.001338942    2.084475977
   5  H       1.00    0.930531184    1.687355813    2.145316777
   6  H       1.00    0.932722980   -1.689863025    2.154846840

 Bond lengths in Bohr (Angstrom)

 1-2  1.822846294  2-3  2.684536206  3-4  2.088232911  3-5  2.090353269  3-6  2.089801850
     ( 0.964608718)     ( 1.420595382)     ( 1.105045267)     ( 1.106167313)     ( 1.105875514)

 Bond angles

  1-2-3  107.90735469   2-3-4  113.09955640   2-3-5  109.96271737   2-3-6  110.59852916

  4-3-5  107.48026262   4-3-6  107.71819489   5-3-6  107.78650522

 NUCLEAR CHARGE:                   18
 NUMBER OF PRIMITIVE AOS:          82
 NUMBER OF SYMMETRY AOS:           80
 NUMBER OF CONTRACTIONS:           48   (  48A   )
 NUMBER OF CORE ORBITALS:           2   (   2A   )
 NUMBER OF VALENCE ORBITALS:       12   (  12A   )


 NUCLEAR REPULSION ENERGY   40.11180389

 Eigenvalues of metric

         1 0.981E-02 0.176E-01 0.347E-01 0.389E-01 0.396E-01 0.498E-01 0.510E-01 0.551E-01


 Contracted 2-electron integrals neglected if value below      1.0D-14
 AO integral compression algorithm  1   Integral accuracy      1.0D-14

     7.078 MB (compressed) written to integral file (100.0%)

     Node minimum: 0.786 MB, node maximum: 1.049 MB


 NUMBER OF SORTED TWO-ELECTRON INTEGRALS:      99372.     BUFFER LENGTH:  32768
 NUMBER OF SEGMENTS:   1  SEGMENT LENGTH:      99372      RECORD LENGTH: 524288

 Memory used in sort:       0.66 MW

 SORT1 READ      839336. AND WROTE       97847. INTEGRALS IN      1 RECORDS. CPU TIME:     0.01 SEC, REAL TIME:     0.03 SEC
 SORT2 READ      682150. AND WROTE      692076. INTEGRALS IN     21 RECORDS. CPU TIME:     0.01 SEC, REAL TIME:     0.00 SEC

 Node minimum:       98364.  Node maximum:       99372. integrals

 OPERATOR DM      FOR CENTER  0  COORDINATES:    0.000000    0.000000    0.000000
 Density functional group B3LYP3=B88+DIRAC+LYP+VWN3
 Functional: B88(Automatically generated (new) B88)                            Gradient terms: 1
 Functional: DIRAC(Automatically generated (new) DIRAC)                        Gradient terms: 0
 Functional: LYP(Automatically generated (new) LYP)                            Gradient terms: 1
 Functional: VWN3(Automatically generated (new) VWN3)                          Gradient terms: 0
 Use grid at  1800.2
 

 Exact exchange will be calculated, factor:  0.2000

 Functional: B88                       Factor:  0.7200
 Functional: DIRAC                     Factor:  0.0800
 Functional: LYP                       Factor:  0.8100
 Functional: VWN3                      Factor:  0.1900
 
 Computed new grid on record 1800.1 in CPU time    0.0
   42186 words reserved for DFT integration

 PROGRAM * RKS-SCF (Restricted closed shell Kohn-Sham)     Authors: W. Meyer, H.-J. Werner, P.J. Knowles, 1993

 NUMBER OF ELECTRONS:       9+    9-    SPACE SYMMETRY=1    SPIN SYMMETRY: Singlet 
 CONVERGENCE THRESHOLDS:    1.00E-10 (Density)    1.00E-10 (Energy)
 MAX. NUMBER OF ITERATIONS:      300
 INTERPOLATION TYPE:            DIIS
 INTERPOLATION STEPS:              2 (START)      1 (STEP)
 LEVEL SHIFTS:                  0.00 (CLOSED)  0.00 (OPEN) 

 Number of closed-shell orbitals:    9 (   9 )


 Use fine grid record 1800.2 for energy threshold  1.0D-06
 Molecular orbitals read from record     2100.2  Type=RKS/CANONICAL (state 1.1)

 Molecular orbital dump at record        2100.1

 ITERATION    DDIFF          GRAD             ENERGY        2-EL.EN.            DIPOLE MOMENTS         DIIS   ORB.
    1      0.000D+00      0.000D+00      -115.72066488    186.825424   -0.59255   -0.00250    0.27873    0    start
    2      0.000D+00      0.107D-03      -115.72067144    186.825212   -0.59253   -0.00326    0.27872    1    diag
    3      0.268D-03      0.172D-04      -115.72067153    186.825505   -0.59255   -0.00262    0.27874    2    diag
    4      0.216D-04      0.529D-05      -115.72067153    186.825176   -0.59253   -0.00286    0.27871    3    diag
    5      0.568D-05      0.849D-06      -115.72067153    186.825465   -0.59255   -0.00283    0.27874    4    diag
    6      0.159D-05      0.630D-06      -115.72067153    186.825322   -0.59254   -0.00282    0.27872    5    diag
    7      0.753D-06      0.675D-07      -115.72067153    186.825325   -0.59254   -0.00283    0.27872    6    diag
    8      0.117D-06      0.118D-07      -115.72067153    186.825329   -0.59254   -0.00283    0.27872    7    orth
    9      0.305D-07      0.699D-08      -115.72067153    186.825327   -0.59254   -0.00283    0.27872    8    diag
   10      0.119D-07      0.116D-09      -115.72067153    186.825327   -0.59254   -0.00283    0.27872    9    diag
   11      0.359D-09      0.957D-11      -115.72067153    186.825327   -0.59254   -0.00283    0.27872    9    diag
   12      0.295D-10      0.232D-11      -115.72067153    186.825327   -0.59254   -0.00283    0.27872    0    orth

 Final occupancy:   9

 !RKS STATE 1.1 Energy               -115.720671534802
 Nuclear energy                        40.11180389
 One-electron energy                 -236.69198944
 Two-electron energy                   93.41266370
 SCF exchange energy                  -14.83649646     Factor= 0.2000
 Density functional                   -12.55314969     B88=-14.87592207 DIRAC=-13.41342418 LYP= -0.59559920 VWN3= -1.51040273
 Virial quotient                       -1.00655224
 !RKS STATE 1.1 Dipole moment          -0.59253893    -0.00282603     0.27872422
 Dipole moment /Debye                  -1.50598510    -0.00718257     0.70839990

 Orbital energies:

         1.1          2.1          3.1          4.1          5.1          6.1          7.1          8.1          9.1         10.1
    -19.128034   -10.227076    -1.009112    -0.675488    -0.500812    -0.429242    -0.418546    -0.327221    -0.262186     0.051271

        11.1
      0.090840

 HOMO      9.1    -0.262186 =      -7.1344eV
 LUMO     10.1     0.051271 =       1.3952eV
 LUMO-HOMO         0.313458 =       8.5296eV


 **********************************************************************************************************************************
 DATASETS  * FILE   NREC   LENGTH (MB)   RECORD NAMES
              1      20       19.44       500      610      700      900      950      970     1000      129      960     1100   
                                          VAR    BASINP    GEOM    SYMINP    ZMAT    AOBASIS   BASIS     P2S    ABASIS      S 
                                         1400     1410     1200     1210     1080     1600     1650     1700     1800     2100   
                                           T        V       H0       H01     AOSYM     SMH    MOLCAS    OPER     GRID      RKS  

              2       7        0.57       700     1000      520     1800     2100     5300     5500   
                                         GEOM     BASIS   MCVARS    GRID      RKS     HESS     HINFO   

 PROGRAMS   *        TOTAL       RKS       RKS       INT
 CPU TIMES  *        18.18      0.43      0.27      0.26
 REAL TIME  *        19.91 SEC
 DISK USED  *       176.35 MB      
 SF USED    *         0.01 MB      
 GA USED    *         0.78 MB       (max)       0.78 MB       (current)
 **********************************************************************************************************************************
1PROGRAM * ALASKA (Gradient of the energy)     Author: R. Lindh

 Orbitals from record         2100.1

 Number of closed-shell orbitals:  9 (  9 )
 Number of occupied orbitals:      9 (  9 )

 Number of electrons= 18     Singlet     Space symmetry=1      Wavefunction type: CLOSED          

 Gradient contributions of integration grid neglected (GRIDGRAD=0).

 DFT GRADIENT, EXFAC=     0.200

 RKS GRADIENT FOR STATE 1.1

 Atom          dE/dx               dE/dy               dE/dz

   1        -0.000008924         0.000127712         0.000029899
   2         0.000017258         0.000556969        -0.000021192
   3         0.000000651        -0.001440360        -0.000005957
   4        -0.000000520         0.000255162         0.000001825
   5        -0.000041695         0.000251106        -0.000399946
   6         0.000041136         0.000249293         0.000397955

 Nuclear force contribution to virial =        -0.000006918
    5 tasks completed, CPU=15s Elapsed=15s
 Starting task   6.  CPU=    15.05 sec, Elapsed=    15.04 sec
 Incrementing symmetrical displacement  6 by 1.0000


 Recomputing integrals since geometry changed

1PROGRAM * SEWARD (Integral evaluation for generally contracted gaussian basis sets)     Author: Roland Lindh, 1990

 Geometry written to block  1 of record 700


 Point group  C1  



 ATOMIC COORDINATES

 NR  ATOM    CHARGE       X              Y              Z

   1  H       1.00   -1.575538383    0.000001544   -1.959455514
   2  O       8.00    0.125934262    0.000000166   -1.305418754
   3  C       6.00   -0.024955210    0.000000164    1.374965421
   4  H       1.00   -1.989890128    0.000173763    2.082026040
   5  H       1.00    0.933299372    1.689902393    2.146274350
   6  H       1.00    0.932994959   -1.690082190    2.146257798

 Bond lengths in Bohr (Angstrom)

 1-2  1.822847565  2-3  2.684627899  3-4  2.088277756  3-5  2.090200672  3-6  2.090200665
     ( 0.964609390)     ( 1.420643904)     ( 1.105068998)     ( 1.106086562)     ( 1.106086558)

 Bond angles

  1-2-3  107.80448001   2-3-4  113.01272633   2-3-5  110.03910147   2-3-6  110.03911863

  4-3-5  107.84021852   4-3-6  107.84022292   5-3-6  107.90533127

 NUCLEAR CHARGE:                   18
 NUMBER OF PRIMITIVE AOS:          82
 NUMBER OF SYMMETRY AOS:           80
 NUMBER OF CONTRACTIONS:           48   (  48A   )
 NUMBER OF CORE ORBITALS:           2   (   2A   )
 NUMBER OF VALENCE ORBITALS:       12   (  12A   )


 NUCLEAR REPULSION ENERGY   40.11794694


 Eigenvalues of metric

         1 0.980E-02 0.176E-01 0.347E-01 0.390E-01 0.396E-01 0.498E-01 0.510E-01 0.551E-01


 Contracted 2-electron integrals neglected if value below      1.0D-14
 AO integral compression algorithm  1   Integral accuracy      1.0D-14

     7.078 MB (compressed) written to integral file ( 96.2%)

     Node minimum: 0.786 MB, node maximum: 1.049 MB


 NUMBER OF SORTED TWO-ELECTRON INTEGRALS:      99372.     BUFFER LENGTH:  32768
 NUMBER OF SEGMENTS:   1  SEGMENT LENGTH:      99372      RECORD LENGTH: 524288

 Memory used in sort:       0.66 MW

 SORT1 READ      839336. AND WROTE       97510. INTEGRALS IN      1 RECORDS. CPU TIME:     0.01 SEC, REAL TIME:     0.02 SEC
 SORT2 READ      680286. AND WROTE      692076. INTEGRALS IN     28 RECORDS. CPU TIME:     0.01 SEC, REAL TIME:     0.01 SEC

 Node minimum:       98364.  Node maximum:       99372. integrals

 OPERATOR DM      FOR CENTER  0  COORDINATES:    0.000000    0.000000    0.000000
 Density functional group B3LYP3=B88+DIRAC+LYP+VWN3
 Functional: B88(Automatically generated (new) B88)                            Gradient terms: 1
 Functional: DIRAC(Automatically generated (new) DIRAC)                        Gradient terms: 0
 Functional: LYP(Automatically generated (new) LYP)                            Gradient terms: 1
 Functional: VWN3(Automatically generated (new) VWN3)                          Gradient terms: 0
 Use grid at  1800.2
 

 Exact exchange will be calculated, factor:  0.2000

 Functional: B88                       Factor:  0.7200
 Functional: DIRAC                     Factor:  0.0800
 Functional: LYP                       Factor:  0.8100
 Functional: VWN3                      Factor:  0.1900
 
 Computed new grid on record 1800.1 in CPU time    0.0
   42186 words reserved for DFT integration

 PROGRAM * RKS-SCF (Restricted closed shell Kohn-Sham)     Authors: W. Meyer, H.-J. Werner, P.J. Knowles, 1993

 NUMBER OF ELECTRONS:       9+    9-    SPACE SYMMETRY=1    SPIN SYMMETRY: Singlet 
 CONVERGENCE THRESHOLDS:    1.00E-10 (Density)    1.00E-10 (Energy)
 MAX. NUMBER OF ITERATIONS:      300
 INTERPOLATION TYPE:            DIIS
 INTERPOLATION STEPS:              2 (START)      1 (STEP)
 LEVEL SHIFTS:                  0.00 (CLOSED)  0.00 (OPEN) 

 Number of closed-shell orbitals:    9 (   9 )


 Use fine grid record 1800.2 for energy threshold  1.0D-06
 Molecular orbitals read from record     2100.2  Type=RKS/CANONICAL (state 1.1)

 Molecular orbital dump at record        2100.1

 ITERATION    DDIFF          GRAD             ENERGY        2-EL.EN.            DIPOLE MOMENTS         DIIS   ORB.
    1      0.000D+00      0.000D+00      -115.72067011    186.841755   -0.59304    0.00001    0.27892    0    start
    2      0.000D+00      0.589D-04      -115.72067174    186.838595   -0.59239    0.00001    0.27885    1    diag
    3      0.169D-03      0.206D-04      -115.72067171    186.844220   -0.59286    0.00001    0.27966    2    diag
    4      0.523D-04      0.235D-04      -115.72067185    186.840677   -0.59258    0.00001    0.27919    3    diag
    5      0.276D-04      0.969D-06      -115.72067185    186.841183   -0.59260    0.00001    0.27922    4    diag
    6      0.223D-05      0.521D-06      -115.72067185    186.841013   -0.59259    0.00001    0.27922    5    diag
    7      0.873D-06      0.226D-07      -115.72067185    186.841016   -0.59259    0.00001    0.27922    6    diag
    8      0.446D-07      0.304D-08      -115.72067185    186.841016   -0.59259    0.00001    0.27922    7    orth
    9      0.462D-08      0.465D-09      -115.72067185    186.841016   -0.59259    0.00001    0.27922    8    diag
   10      0.956D-09      0.101D-09      -115.72067185    186.841016   -0.59259    0.00001    0.27922    9    diag
   11      0.170D-09      0.101D-10      -115.72067185    186.841016   -0.59259    0.00001    0.27922    9    diag
   12      0.160D-10      0.177D-11      -115.72067185    186.841016   -0.59259    0.00001    0.27922    0    orth

 Final occupancy:   9

 !RKS STATE 1.1 Energy               -115.720671849909
 Nuclear energy                        40.11794694
 One-electron energy                 -236.70581510
 Two-electron energy                   93.42050790
 SCF exchange energy                  -14.83673449     Factor= 0.2000
 Density functional                   -12.55331159     B88=-14.87611200 DIRAC=-13.41361387 LYP= -0.59560853 VWN3= -1.51041539
 Virial quotient                       -1.00654124
 !RKS STATE 1.1 Dipole moment          -0.59259413     0.00000631     0.27921615
 Dipole moment /Debye                  -1.50612540     0.00001604     0.70965019

 Orbital energies:

         1.1          2.1          3.1          4.1          5.1          6.1          7.1          8.1          9.1         10.1
    -19.127771   -10.227047    -1.009032    -0.675275    -0.500594    -0.429417    -0.418457    -0.327362    -0.261937     0.051183

        11.1
      0.091140

 HOMO      9.1    -0.261937 =      -7.1277eV
 LUMO     10.1     0.051183 =       1.3927eV
 LUMO-HOMO         0.313119 =       8.5204eV


 **********************************************************************************************************************************
 DATASETS  * FILE   NREC   LENGTH (MB)   RECORD NAMES
              1      20       19.44       500      610      700      900      950      970     1000      129      960     1100   
                                          VAR    BASINP    GEOM    SYMINP    ZMAT    AOBASIS   BASIS     P2S    ABASIS      S 
                                         1400     1410     1200     1210     1080     1600     1650     1700     1800     2100   
                                           T        V       H0       H01     AOSYM     SMH    MOLCAS    OPER     GRID      RKS  

              2       7        0.57       700     1000      520     1800     2100     5300     5500   
                                         GEOM     BASIS   MCVARS    GRID      RKS     HESS     HINFO   

 PROGRAMS   *        TOTAL       RKS       RKS       INT
 CPU TIMES  *        21.20      0.50      0.27      0.26
 REAL TIME  *        22.98 SEC
 DISK USED  *       176.35 MB      
 SF USED    *         0.01 MB      
 GA USED    *         0.78 MB       (max)       0.78 MB       (current)
 **********************************************************************************************************************************
1PROGRAM * ALASKA (Gradient of the energy)     Author: R. Lindh

 Orbitals from record         2100.1

 Number of closed-shell orbitals:  9 (  9 )
 Number of occupied orbitals:      9 (  9 )

 Number of electrons= 18     Singlet     Space symmetry=1      Wavefunction type: CLOSED          

 Gradient contributions of integration grid neglected (GRIDGRAD=0).

 DFT GRADIENT, EXFAC=     0.200

 RKS GRADIENT FOR STATE 1.1

 Atom          dE/dx               dE/dy               dE/dz

   1        -0.000076051         0.000000360         0.000261988
   2         0.000434320        -0.000001398         0.000410165
   3        -0.000625501         0.000000986         0.000649766
   4        -0.000257379        -0.000000272        -0.000303319
   5         0.000266488         0.000194970        -0.000506807
   6         0.000266368        -0.000194663        -0.000508326

 Nuclear force contribution to virial =        -0.001107659
 Starting task   7.  CPU=    18.12 sec, Elapsed=    18.11 sec
 Incrementing symmetrical displacement  7 by 1.0000


 Recomputing integrals since geometry changed

1PROGRAM * SEWARD (Integral evaluation for generally contracted gaussian basis sets)     Author: Roland Lindh, 1990

 Geometry written to block  1 of record 700


 Point group  C1  



 ATOMIC COORDINATES

 NR  ATOM    CHARGE       X              Y              Z

   1  H       1.00   -1.576228818    0.000001524   -1.957868357
   2  O       8.00    0.128582156    0.000000207   -1.311879022
   3  C       6.00   -0.025515719    0.000000135    1.368248250
   4  H       1.00   -1.986149442    0.000173459    2.086746933
   5  H       1.00    0.930730155    1.686045620    2.149708961
   6  H       1.00    0.930426541   -1.686225105    2.149692576

 Bond lengths in Bohr (Angstrom)

 1-2  1.823097001  2-3  2.684553660  3-4  2.088139119  3-5  2.089936935  3-6  2.089936937
     ( 0.964741386)     ( 1.420604618)     ( 1.104995635)     ( 1.105946998)     ( 1.105946999)

 Bond angles

  1-2-3  107.46208702   2-3-4  113.41667221   2-3-5  110.30609233   2-3-6  110.30612623

  4-3-5  107.51064561   4-3-6  107.51065926   5-3-6  107.56651173

 NUCLEAR CHARGE:                   18
 NUMBER OF PRIMITIVE AOS:          82
 NUMBER OF SYMMETRY AOS:           80
 NUMBER OF CONTRACTIONS:           48   (  48A   )
 NUMBER OF CORE ORBITALS:           2   (   2A   )
 NUMBER OF VALENCE ORBITALS:       12   (  12A   )


 NUCLEAR REPULSION ENERGY   40.11330048

 Eigenvalues of metric

         1 0.982E-02 0.175E-01 0.347E-01 0.389E-01 0.396E-01 0.499E-01 0.510E-01 0.551E-01


 Contracted 2-electron integrals neglected if value below      1.0D-14
 AO integral compression algorithm  1   Integral accuracy      1.0D-14

     7.078 MB (compressed) written to integral file ( 97.2%)

     Node minimum: 0.786 MB, node maximum: 1.049 MB


 NUMBER OF SORTED TWO-ELECTRON INTEGRALS:      99372.     BUFFER LENGTH:  32768
 NUMBER OF SEGMENTS:   1  SEGMENT LENGTH:      99372      RECORD LENGTH: 524288

 Memory used in sort:       0.66 MW

 SORT1 READ      839336. AND WROTE       97772. INTEGRALS IN      1 RECORDS. CPU TIME:     0.02 SEC, REAL TIME:     0.03 SEC
 SORT2 READ      681789. AND WROTE      692076. INTEGRALS IN     28 RECORDS. CPU TIME:     0.01 SEC, REAL TIME:     0.01 SEC

 Node minimum:       98364.  Node maximum:       99372. integrals

 OPERATOR DM      FOR CENTER  0  COORDINATES:    0.000000    0.000000    0.000000
 Density functional group B3LYP3=B88+DIRAC+LYP+VWN3
 Functional: B88(Automatically generated (new) B88)                            Gradient terms: 1
 Functional: DIRAC(Automatically generated (new) DIRAC)                        Gradient terms: 0
 Functional: LYP(Automatically generated (new) LYP)                            Gradient terms: 1
 Functional: VWN3(Automatically generated (new) VWN3)                          Gradient terms: 0
 Use grid at  1800.2
 

 Exact exchange will be calculated, factor:  0.2000

 Functional: B88                       Factor:  0.7200
 Functional: DIRAC                     Factor:  0.0800
 Functional: LYP                       Factor:  0.8100
 Functional: VWN3                      Factor:  0.1900
 
 Computed new grid on record 1800.1 in CPU time    0.0
   42186 words reserved for DFT integration

 PROGRAM * RKS-SCF (Restricted closed shell Kohn-Sham)     Authors: W. Meyer, H.-J. Werner, P.J. Knowles, 1993

 NUMBER OF ELECTRONS:       9+    9-    SPACE SYMMETRY=1    SPIN SYMMETRY: Singlet 
 CONVERGENCE THRESHOLDS:    1.00E-10 (Density)    1.00E-10 (Energy)
 MAX. NUMBER OF ITERATIONS:      300
 INTERPOLATION TYPE:            DIIS
 INTERPOLATION STEPS:              2 (START)      1 (STEP)
 LEVEL SHIFTS:                  0.00 (CLOSED)  0.00 (OPEN) 

 Number of closed-shell orbitals:    9 (   9 )


 Use fine grid record 1800.2 for energy threshold  1.0D-06
 Molecular orbitals read from record     2100.2  Type=RKS/CANONICAL (state 1.1)

 Molecular orbital dump at record        2100.1

 ITERATION    DDIFF          GRAD             ENERGY        2-EL.EN.            DIPOLE MOMENTS         DIIS   ORB.
    1      0.000D+00      0.000D+00      -115.72066211    186.823891   -0.59419    0.00001    0.28035    0    start
    2      0.000D+00      0.104D-03      -115.72066742    186.820398   -0.59370    0.00001    0.28040    1    diag
    3      0.292D-03      0.912D-05      -115.72066745    186.824562   -0.59378    0.00001    0.28043    2    diag
    4      0.243D-04      0.712D-05      -115.72066746    186.821575   -0.59368    0.00001    0.28029    3    diag
    5      0.118D-04      0.168D-05      -115.72066746    186.822151   -0.59372    0.00001    0.28034    4    diag
    6      0.252D-05      0.606D-06      -115.72066746    186.822131   -0.59371    0.00001    0.28033    5    diag
    7      0.922D-06      0.152D-06      -115.72066746    186.822115   -0.59371    0.00001    0.28033    6    diag
    8      0.243D-06      0.592D-08      -115.72066746    186.822116   -0.59371    0.00001    0.28033    7    orth
    9      0.122D-07      0.142D-08      -115.72066746    186.822116   -0.59371    0.00001    0.28033    8    diag
   10      0.242D-08      0.176D-09      -115.72066746    186.822116   -0.59371    0.00001    0.28033    9    diag
   11      0.211D-09      0.220D-10      -115.72066746    186.822116   -0.59371    0.00001    0.28033    9    diag
   12      0.371D-10      0.296D-11      -115.72066746    186.822116   -0.59371    0.00001    0.28033    0    orth

 Final occupancy:   9

 !RKS STATE 1.1 Energy               -115.720667462767
[...]
        12     0.5037500     0.0000041     0.2674050    -0.0000129     0.6075265     0.1725826    -0.1717699     0.0000115
        13     0.1537745     0.0828129     0.1508339    -0.3758069    -0.2758086    -0.4007190    -0.2689063     0.3234143
        14    -0.0271029    -0.1760983    -0.0804777     0.0534424    -0.0409993     0.4055892    -0.4779467     0.5400557
        15    -0.0843960     0.5582235    -0.1861820     0.3042157     0.3838425    -0.3680715    -0.2008624     0.2350777
        16     0.1537783    -0.0828403     0.1508466     0.3758193    -0.2757939    -0.4007864    -0.2688394    -0.3233304
        17     0.0270765    -0.1760969     0.0804502     0.0533723     0.0410530    -0.4055336     0.4780011     0.5401097
        18    -0.0843956    -0.5582202    -0.1861807    -0.3042285     0.3838355    -0.3680604    -0.2008798    -0.2350925
                  17            18
         1    -0.0190386     0.9023363
         2     0.0000011    -0.0000661
         3    -0.0013233     0.3546225
         4     0.0088405    -0.2235413
         5    -0.0000005     0.0000163
         6    -0.0020981    -0.0976739
         7    -0.3101913    -0.0091788
         8     0.0000141     0.0000008
         9     0.0018272     0.0064063
        10     0.7547439     0.0141912
        11    -0.0000639    -0.0000011
        12    -0.2523294     0.0040388
        13     0.1499643     0.0028895
        14     0.3101480     0.0079524
        15     0.1278567     0.0041852
        16     0.1498923     0.0028882
        17    -0.3101318    -0.0079528
        18     0.1278473     0.0041854

 Imaginary Vibration  Wavenumber
        Nr             [1/cm] 
        1              337.49

   Low Vibration      Wavenumber
        Nr             [1/cm] 
        1                0.00
        2                0.00
        3                0.00
        4                0.00
        5                0.00
        6                0.00

     Vibration        Wavenumber
        Nr             [1/cm] 
        1             1055.03
        2             1076.67
        3             1174.79
        4             1358.44
        5             1456.34
        6             1466.85
        7             1490.45
        8             2988.41
        9             3043.87
       10             3060.18
       11             3824.63

 FREQUENCIES * CALCULATION OF NORMAL MODES FOR RKS-SCF


 Atomic Coordinates

  Nr  Atom  Charge       X              Y              Z

   1   H     1.00   -1.576615803    0.000071545   -1.963826302
   2   O     8.00    0.124320437   -0.000053218   -1.308393847
   3   C     6.00   -0.023174385   -0.000012920    1.372041271
   4   H     1.00   -1.986027336    0.000152088    2.084693303
   5   H     1.00    0.931805978    1.688518163    2.150048637
   6   H     1.00    0.931535981   -1.688679818    2.150086279

 Frequencies dumped to record   5400.2

 Gradient norm at reference geometry: 0.39830D-04
 
 Molecule is not in standard orientation!
 Symmetry information for normal modes not available!

 Normal Modes

                              1 A         2 A         3 A         4 A         5 A  
 Wavenumbers [cm-1]         1055.03     1076.67     1174.79     1358.44     1456.34
 Intensities [km/mol]         99.63       16.77        0.29       24.93        1.31
 Intensities [relative]      100.00       16.83        0.29       25.02        1.32
           GX1              0.21274     0.08972    -0.00001    -0.22001    -0.00000
           GY1             -0.00002    -0.00001    -0.12539     0.00003    -0.01585
           GZ1             -0.40902    -0.32640     0.00000     0.72386     0.00000
           GX2             -0.00399     0.02101    -0.00000     0.07033    -0.00000
           GY2              0.00000    -0.00000    -0.04519    -0.00001    -0.00918
           GZ2              0.12889    -0.11648     0.00000    -0.00760     0.00000
           GX3             -0.04980    -0.06638     0.00001    -0.10105    -0.00000
           GY3              0.00000     0.00001     0.12259     0.00001    -0.05389
           GZ3             -0.11765     0.15454    -0.00000    -0.04185     0.00000
           GX4              0.10216     0.06150    -0.00002     0.00739     0.00005
           GY4             -0.00001     0.00000    -0.26727     0.00000     0.69741
           GZ4              0.31332     0.50176     0.00000     0.26635    -0.00001
           GX5              0.17092     0.15317     0.08249     0.15024    -0.37432
           GY5             -0.04366    -0.02700    -0.17540    -0.08016     0.05323
           GZ5             -0.27412    -0.08406     0.55602    -0.18545     0.30302
           GX6              0.17093     0.15317    -0.08251     0.15025     0.37434
           GY6              0.04362     0.02697    -0.17540     0.08013     0.05316
           GZ6             -0.27412    -0.08406    -0.55602    -0.18545    -0.30303

                              6 A         7 A         8 A         9 A        10 A  
 Wavenumbers [cm-1]         1466.85     1490.45     2988.41     3043.87     3060.18
 Intensities [km/mol]         10.90        3.95       55.84       63.92       54.90
 Intensities [relative]       10.94        3.97       56.05       64.16       55.10
           GX1             -0.01168    -0.01372     0.00446    -0.00000    -0.01896
           GY1              0.00000     0.00000    -0.00000    -0.00880     0.00000
           GZ1              0.02043     0.07245    -0.00113     0.00000    -0.00132
           GX2              0.00718     0.01429    -0.00066     0.00000     0.00221
           GY2             -0.00000    -0.00000     0.00000     0.00141    -0.00000
           GZ2             -0.01435     0.00678     0.00231    -0.00000    -0.00052
           GX3              0.01736     0.04335     0.00251    -0.00000    -0.08950
           GY3             -0.00000    -0.00000    -0.00000    -0.08956     0.00000
           GZ3             -0.09755     0.03199     0.04496     0.00000     0.00053
           GX4              0.24020     0.06870     0.51161    -0.00004     0.75177
           GY4             -0.00000    -0.00001    -0.00004    -0.02216    -0.00006
           GZ4              0.60513     0.17190    -0.17109     0.00001    -0.25133
           GX5             -0.27472    -0.39914    -0.26785     0.32214     0.14937
           GY5             -0.04084     0.40399    -0.47606     0.53792     0.30892
           GZ5              0.38233    -0.36662    -0.20007     0.23415     0.12735
           GX6             -0.27471    -0.39920    -0.26778    -0.32205     0.14930
           GY6              0.04089    -0.40393     0.47611     0.53798    -0.30891
           GZ6              0.38232    -0.36661    -0.20009    -0.23416     0.12734

                             11 A  
 Wavenumbers [cm-1]         3824.63
 Intensities [km/mol]         30.56
 Intensities [relative]       30.68
           GX1              0.89878
           GY1             -0.00007
           GZ1              0.35322
           GX2             -0.05589
           GY2              0.00000
           GZ2             -0.02442
           GX3             -0.00265
           GY3              0.00000
           GZ3              0.00185
           GX4              0.01414
           GY4             -0.00000
           GZ4              0.00402
           GX5              0.00288
           GY5              0.00792
           GZ5              0.00417
           GX6              0.00288
           GY6             -0.00792
           GZ6              0.00417


 Normal Modes of imaginary frequencies

                                  1
 Wavenumbers [cm-1]          337.49
 Intensities [km/mol]         71.88
 Intensities [relative]       72.15
           GX1              0.00007
           GY1              0.84714
           GZ1             -0.00001
           GX2             -0.00001
           GY2             -0.06878
           GZ2              0.00000
           GX3              0.00000
           GY3              0.01971
           GZ3             -0.00000
           GX4             -0.00002
           GY4             -0.25736
           GZ4              0.00000
           GX5             -0.21223
           GY5              0.13359
           GZ5              0.03703
           GX6              0.21225
           GY6              0.13355
           GZ6             -0.03703


 Normal Modes of low/zero frequencies

                                  1           2           3           4           5
 Wavenumbers [cm-1]            0.00        0.00        0.00        0.00        0.00
 Intensities [km/mol]          0.00        0.00        0.00        0.00        0.00
 Intensities [relative]        0.00        0.00        0.00        0.00        0.00
           GX1              0.28422    -0.00240     0.01866     0.02033    -0.01141
           GY1              0.05635    -0.02532    -0.19663    -0.29964     0.09776
           GZ1             -0.13662     0.01925    -0.13410     0.10680     0.12422
           GX2              0.22489    -0.02679     0.01017     0.04745     0.00308
           GY2              0.01320    -0.06624     0.04764    -0.12405     0.18236
           GZ2              0.01733     0.08253    -0.11202     0.03646     0.08662
           GX3             -0.01772    -0.12649    -0.02464     0.15831     0.06233
           GY3             -0.00251     0.14587     0.13465     0.04497     0.07747
           GZ3              0.00398     0.07704    -0.11393     0.04256     0.08988
           GX4             -0.08222    -0.15299    -0.03391     0.18777     0.07808
           GY4              0.03686     0.30502    -0.08918    -0.05878    -0.07251
           GZ4             -0.17368     0.00401    -0.13942     0.12373     0.13328
           GX5             -0.04992    -0.06523    -0.25151     0.05997    -0.02764
           GY5             -0.02965     0.15413     0.28800     0.17115     0.11036
           GZ5              0.10242    -0.01609    -0.16827    -0.11060     0.12895
           GX6             -0.12637    -0.24564     0.18205     0.32101     0.18671
           GY6             -0.02964     0.15415     0.28796     0.17114     0.11034
           GZ6              0.07840     0.24121    -0.03479     0.11674     0.00859

                                  6
 Wavenumbers [cm-1]            0.00
 Intensities [km/mol]          0.00
 Intensities [relative]        0.00
           GX1             -0.01519
           GY1              0.34148
           GZ1              0.00491
           GX2              0.00750
           GY2              0.01294
           GZ2             -0.05405
           GX3              0.10042
           GY3              0.09735
           GZ3             -0.04894
           GX4              0.12516
           GY4              0.50649
           GZ4              0.01910
           GX5              0.46683
           GY5             -0.07874
           GZ5             -0.11654
           GX6             -0.21207
           GY6             -0.07868
           GZ6             -0.04753


 Zero point energy:  0.05010980 [H]    10997.83 [1/CM]      131.56 [KJ/MOL]

 Recomputing wavefunction at initial geometry


 Recomputing integrals since geometry changed

1PROGRAM * SEWARD (Integral evaluation for generally contracted gaussian basis sets)     Author: Roland Lindh, 1990

 Geometry written to block  1 of record 700


 Point group  C1  



 ATOMIC COORDINATES

 NR  ATOM    CHARGE       X              Y              Z

   1  H       1.00   -1.576615803    0.000071545   -1.963826302
   2  O       8.00    0.124320437   -0.000053218   -1.308393847
   3  C       6.00   -0.023174385   -0.000012920    1.372041271
   4  H       1.00   -1.986027336    0.000152088    2.084693303
   5  H       1.00    0.931805978    1.688518163    2.150048637
   6  H       1.00    0.931535981   -1.688679818    2.150086279

 Bond lengths in Bohr (Angstrom)

 1-2  1.822848270  2-3  2.684490109  3-4  2.088220451  3-5  2.090076596  3-6  2.090076987
     ( 0.964609763)     ( 1.420570988)     ( 1.105038674)     ( 1.106020903)     ( 1.106021111)

 Bond angles

  1-2-3  107.92387727   2-3-4  113.10402222   2-3-5  110.27853675   2-3-6  110.27858317

  4-3-5  107.60073243   4-3-6  107.60073554   5-3-6  107.78493537

 NUCLEAR CHARGE:                   18
 NUMBER OF PRIMITIVE AOS:          82
 NUMBER OF SYMMETRY AOS:           80
 NUMBER OF CONTRACTIONS:           48   (  48A   )
 NUMBER OF CORE ORBITALS:           2   (   2A   )
 NUMBER OF VALENCE ORBITALS:       12   (  12A   )


 NUCLEAR REPULSION ENERGY   40.11196207

 Eigenvalues of metric

         1 0.981E-02 0.176E-01 0.347E-01 0.389E-01 0.396E-01 0.498E-01 0.510E-01 0.551E-01


 Contracted 2-electron integrals neglected if value below      1.0D-14
 AO integral compression algorithm  1   Integral accuracy      1.0D-14

     7.340 MB (compressed) written to integral file ( 95.9%)

     Node minimum: 1.049 MB, node maximum: 1.049 MB


 NUMBER OF SORTED TWO-ELECTRON INTEGRALS:      99372.     BUFFER LENGTH:  32768
 NUMBER OF SEGMENTS:   1  SEGMENT LENGTH:      99372      RECORD LENGTH: 524288

 Memory used in sort:       0.66 MW

 SORT1 READ      839336. AND WROTE       97844. INTEGRALS IN      1 RECORDS. CPU TIME:     0.02 SEC, REAL TIME:     0.02 SEC
 SORT2 READ      682144. AND WROTE      692076. INTEGRALS IN     28 RECORDS. CPU TIME:     0.00 SEC, REAL TIME:     0.01 SEC

 Node minimum:       98364.  Node maximum:       99372. integrals

 OPERATOR DM      FOR CENTER  0  COORDINATES:    0.000000    0.000000    0.000000
 Density functional group B3LYP3=B88+DIRAC+LYP+VWN3
 Functional: B88(Automatically generated (new) B88)                            Gradient terms: 1
 Functional: DIRAC(Automatically generated (new) DIRAC)                        Gradient terms: 0
 Functional: LYP(Automatically generated (new) LYP)                            Gradient terms: 1
 Functional: VWN3(Automatically generated (new) VWN3)                          Gradient terms: 0
 Use grid at  1800.2
 

 Exact exchange will be calculated, factor:  0.2000

 Functional: B88                       Factor:  0.7200
 Functional: DIRAC                     Factor:  0.0800
 Functional: LYP                       Factor:  0.8100
 Functional: VWN3                      Factor:  0.1900
 
 Generated new metagrid on record  1800.2 with target accuracy 1.0D-06 and 22204 points in CPU time    0.1
 Computed new grid on record 1800.1 in CPU time    0.1
   42186 words reserved for DFT integration

 PROGRAM * RKS-SCF (Restricted closed shell Kohn-Sham)     Authors: W. Meyer, H.-J. Werner, P.J. Knowles, 1993

 NUMBER OF ELECTRONS:       9+    9-    SPACE SYMMETRY=1    SPIN SYMMETRY: Singlet 
 CONVERGENCE THRESHOLDS:    1.00E-10 (Density)    1.00E-10 (Energy)
 MAX. NUMBER OF ITERATIONS:      300
 INTERPOLATION TYPE:            DIIS
 INTERPOLATION STEPS:              2 (START)      1 (STEP)
 LEVEL SHIFTS:                  0.00 (CLOSED)  0.00 (OPEN) 

 Number of closed-shell orbitals:    9 (   9 )


 Use fine grid record 1800.2 for energy threshold  1.0D-06
 Molecular orbitals read from record     2100.2  Type=RKS/CANONICAL (state 1.1)

 Molecular orbital dump at record        2100.2

 ITERATION    DDIFF          GRAD             ENERGY        2-EL.EN.            DIPOLE MOMENTS         DIIS   ORB.
    1      0.000D+00      0.000D+00      -115.72067800    186.825761   -0.59252    0.00005    0.27859    0    start
    2      0.000D+00      0.307D-11      -115.72067800    186.825761   -0.59252    0.00005    0.27859    0    orth

 Final occupancy:   9

 !RKS STATE 1.1 Energy               -115.720677995434
 Nuclear energy                        40.11196207
 One-electron energy                 -236.69236331
 Two-electron energy                   93.41288053
 SCF exchange energy                  -14.83650957     Factor= 0.2000
 Density functional                   -12.55315729     B88=-14.87593119 DIRAC=-13.41343321 LYP= -0.59559945 VWN3= -1.51040324
 Virial quotient                       -1.00655233
 !RKS STATE 1.1 Dipole moment          -0.59252416     0.00004916     0.27858510
 Dipole moment /Debye                  -1.50594755     0.00012494     0.70804633

 Orbital energies:

         1.1          2.1          3.1          4.1          5.1          6.1          7.1          8.1          9.1         10.1
    -19.128026   -10.227075    -1.009105    -0.675494    -0.500818    -0.429229    -0.418562    -0.327203    -0.262181     0.051279

        11.1
      0.090838

 HOMO      9.1    -0.262181 =      -7.1343eV
 LUMO     10.1     0.051279 =       1.3954eV
 LUMO-HOMO         0.313459 =       8.5297eV


 **********************************************************************************************************************************
 DATASETS  * FILE   NREC   LENGTH (MB)   RECORD NAMES
              1      19       19.24       500      610      700      900      950      970     1000      129      960     1100   
                                          VAR    BASINP    GEOM    SYMINP    ZMAT    AOBASIS   BASIS     P2S    ABASIS      S 
                                         1400     1410     1200     1210     1080     1600     1650     1700     1800   
                                           T        V       H0       H01     AOSYM     SMH    MOLCAS    OPER     GRID   

              2      11        0.60       700     1000      520     1800     2100     5300     5300(1)  5500     5301     5400   
                                         GEOM     BASIS   MCVARS    GRID      RKS     HESS     HESS     HINFO    HESS     FREQ   
                                         5450   
                                         NMOD   

 PROGRAMS   *        TOTAL       RKS      OPTG       RKS       INT
 CPU TIMES  *       166.11      0.41     42.58      0.27      0.26
 REAL TIME  *       170.07 SEC
 DISK USED  *       176.48 MB      
 SF USED    *         0.01 MB      
 GA USED    *         0.78 MB       (max)       0.78 MB       (current)
 **********************************************************************************************************************************


 **********************************************************************************************************************************
 DATASETS  * FILE   NREC   LENGTH (MB)   RECORD NAMES
              1      19       19.24       500      610      700      900      950      970     1000      129      960     1100   
                                          VAR    BASINP    GEOM    SYMINP    ZMAT    AOBASIS   BASIS     P2S    ABASIS      S 
                                         1400     1410     1200     1210     1080     1600     1650     1700     1800   
                                           T        V       H0       H01     AOSYM     SMH    MOLCAS    OPER     GRID   

              2      11        0.60       700     1000      520     1800     2100     5300     5300(1)  5500     5301     5400   
                                         GEOM     BASIS   MCVARS    GRID      RKS     HESS     HESS     HINFO    HESS     FREQ   
                                         5450   
                                         NMOD   

 PROGRAMS   *        TOTAL      FREQ      OPTG       RKS       INT
 CPU TIMES  *       166.11    122.86     42.58      0.27      0.26
 REAL TIME  *       170.07 SEC
 DISK USED  *       176.48 MB      
 SF USED    *         0.01 MB      
 GA USED    *         0.78 MB       (max)       0.78 MB       (current)
 **********************************************************************************************************************************

 RB3LYP3/cc-pVDZ energy=   -115.720677995434

       OPTG(RKS)        RKS-SCF 
   -115.72067800   -115.72067800
 **********************************************************************************************************************************
 Variable memory released
