
 Primary working directories    : /scratch/kmoore
 Secondary working directories  : /scratch/kmoore
 Wavefunction directory         : /scratch/kmoore/
 Main file repository           : /scratch/kmoore/

 SHA1      : b6b3a4772808bb2d43777f23454e145ddfe12dc3
 NAME      : 2015.1.1
 ARCHNAME  : linux/x86_64
 FC        : /soft/mvapich2/2.2b_psm/intel-15.0/bin/mpif90
 BLASLIB   : -L/soft/intel/15.0.1/composer_xe_2015.0.090/mkl/lib/intel64 -lmkl_intel_ilp64 -lmkl_sequential -lmkl_core
 id        : anlgov

 Nodes     nprocs
 b456         7
 Number of processes for MPI-2 version of Molpro:   nprocs(total)=    8   nprocs(compute)=    7   nprocs(helper)=    1

 Using customized tuning parameters: mindgm=1; mindgv=20; mindgc=4; mindgr=1; noblas=0; minvec=7
 default implementation of scratch files=sf  

 memory,850,m
 gthresh,energy=1.0d-10,orbital=1.0d-10,oneint=1.d-12,twoint=1.d-14
 
 angstrom
 Geometry = {
 H
 O 1 r1
 C 2 r2 1 a1
 H 3 r3 2 a2 1 d1
 H 3 r4 4 a3 2 d2
 H 3 r4 4 a3 2 -d2
 }
 
 r1 =   0.992
 r2 =   1.398
 r3 =   1.109
 r4 =   1.112
 a1 =   106.0
 a2 =   108.9
 a3 =   108.2
 d2 =   119.9
 d1 =  -180.0
 
 basis=cc-pVDZ
 {rks,b3lyp3,maxit=300}
 
 {optg
  inactive,d1}
 
 {freq
  print,hessian}
 

 Variables initialized (889), CPU time= 0.00 sec
 Commands  initialized (702), CPU time= 0.01 sec, 572 directives.
 Default parameters read. Elapsed time= 0.17 sec

 Checking input...
 Passed
1


                                         ***  PROGRAM SYSTEM MOLPRO  ***
                                       Copyright, TTI GmbH Stuttgart, 2015
                                    Version 2015.1 linked Jan  8 2016 07:59:11


 **********************************************************************************************************************************
 LABEL *                                                                                 
  64 bit mpp version                                                                     DATE: 27-Jan-19          TIME: 13:20:34  
 **********************************************************************************************************************************

 SHA1:             b6b3a4772808bb2d43777f23454e145ddfe12dc3
 **********************************************************************************************************************************

 THRESHOLDS:

 ZERO    =  1.00D-12  ONEINT  =  1.00D-12  TWOINT  =  1.00D-14  PREFAC  =  1.00D-14  LOCALI  =  1.00D-09  EORDER  =  1.00D-04
 ENERGY  =  1.00D-10  ETEST   =  0.00D+00  EDENS   =  0.00D+00  THRDEDEF=  1.00D-06  GRADIENT=  1.00D-02  STEP    =  1.00D-03
 ORBITAL =  1.00D-10  CIVEC   =  1.00D-05  COEFF   =  1.00D-04  PRINTCI =  5.00D-02  PUNCHCI =  9.90D+01  OPTGRAD =  3.00D-04
 OPTENERG=  1.00D-06  OPTSTEP =  3.00D-04  THRGRAD =  1.00D-10  COMPRESS=  1.00D-11  VARMIN  =  1.00D-07  VARMAX  =  1.00D-03
 THRDOUB =  0.00D+00  THRDIV  =  1.00D-05  THRRED  =  1.00D-07  THRPSP  =  1.00D+00  THRDC   =  1.00D-10  THRCS   =  1.00D-10
 THRNRM  =  1.00D-08  THREQ   =  0.00D+00  THRDE   =  1.00D+00  THRREF  =  1.00D-05  SPARFAC =  1.00D+00  THRDLP  =  1.00D-07
 THRDIA  =  1.00D-10  THRDLS  =  1.00D-07  THRGPS  =  0.00D+00  THRKEX  =  0.00D+00  THRDIS  =  2.00D-01  THRVAR  =  1.00D-10
 THRLOC  =  1.00D-06  THRGAP  =  1.00D-06  THRLOCT = -1.00D+00  THRGAPT = -1.00D+00  THRORB  =  1.00D-06  THRMLTP =  0.00D+00
 THRCPQCI=  1.00D-10  KEXTA   =  0.00D+00  THRCOARS=  0.00D+00  SYMTOL  =  1.00D-06  GRADTOL =  1.00D-06  THROVL  =  1.00D-08
 THRORTH =  1.00D-08  GRID    =  1.00D-06  GRIDMAX =  1.00D-03  DTMAX   =  0.00D+00  THROCCDE=  1.00D-01  THROCCDE=  1.00D-01


 ZUNIT=ANG
 
 SETTING R1             =         0.99200000                                  
 SETTING R2             =         1.39800000                                  
 SETTING R3             =         1.10900000                                  
 SETTING R4             =         1.11200000                                  
 SETTING A1             =       106.00000000                                  
 SETTING A2             =       108.90000000                                  
 SETTING A3             =       108.20000000                                  
 SETTING D2             =       119.90000000                                  
 SETTING D1             =      -180.00000000                                  

 Variable memory set to  850000000 words,  buffer space   230000 words

 SETTING BASIS          =    CC-PVDZ


 Recomputing integrals since basis changed


 Using spherical harmonics

 Library entry H      S cc-pVDZ              selected for orbital group  1
 Library entry H      P cc-pVDZ              selected for orbital group  1
 Library entry O      S cc-pVDZ              selected for orbital group  2
 Library entry O      P cc-pVDZ              selected for orbital group  2
 Library entry O      D cc-pVDZ              selected for orbital group  2
 Library entry C      S cc-pVDZ              selected for orbital group  3
 Library entry C      P cc-pVDZ              selected for orbital group  3
 Library entry C      D cc-pVDZ              selected for orbital group  3

1PROGRAM * SEWARD (Integral evaluation for generally contracted gaussian basis sets)     Author: Roland Lindh, 1990

 Geometry written to block  1 of record 700

 Orientation using atomic masses  
 Molecule type: Asymmetric top
 Symmetry elements: Y
 Rotational constants:      25.4226007     24.4927111    122.1946874 GHz  (calculated with average atomic masses)

 Point group  Cs  



 ATOMIC COORDINATES

 NR  ATOM    CHARGE       X              Y              Z

   1  H       1.00   -1.636160270    0.000000000   -1.909413008
   2  O       8.00    0.131389014    0.000000000   -1.284972568
   3  C       6.00   -0.027926707    0.000000000    1.352056420
   4  H       1.00    1.910244653    0.000000000    2.149224256
   5  H       1.00   -1.013442433   -1.730540856    2.022702290
   6  H       1.00   -1.013442433    1.730540856    2.022702290

 Bond lengths in Bohr (Angstrom)

 1-2  1.874608316  2-3  2.641837122  3-4  2.095706272  3-5  2.101375451  3-6  2.101375451
     ( 0.992000000)     ( 1.398000000)     ( 1.109000000)     ( 1.112000000)     ( 1.112000000)

 Bond angles

  1-2-3  106.00000000   2-3-4  108.90000000   2-3-5  110.29461205   2-3-6  110.29461205

  4-3-5  108.20000000   4-3-6  108.20000000   5-3-6  110.87900723

 NUCLEAR CHARGE:                   18
 NUMBER OF PRIMITIVE AOS:          82
 NUMBER OF SYMMETRY AOS:           80
 NUMBER OF CONTRACTIONS:           48   (  33A'  +  15A"  )
 NUMBER OF CORE ORBITALS:           2   (   2A'  +   0A"  )
 NUMBER OF VALENCE ORBITALS:       12   (   9A'  +   3A"  )


 NUCLEAR REPULSION ENERGY   40.34989139

 Eigenvalues of metric

         1 0.966E-02 0.178E-01 0.388E-01 0.411E-01 0.504E-01 0.544E-01 0.752E-01 0.102E+00
         2 0.397E-01 0.480E-01 0.128E+00 0.177E+00 0.330E+00 0.473E+00 0.606E+00 0.924E+00


 Contracted 2-electron integrals neglected if value below      1.0D-14
 AO integral compression algorithm  1   Integral accuracy      1.0D-14

     4.456 MB (compressed) written to integral file (100.0%)

     Node minimum: 0.524 MB, node maximum: 0.786 MB


 NUMBER OF SORTED TWO-ELECTRON INTEGRALS:      52362.     BUFFER LENGTH:  32768
 NUMBER OF SEGMENTS:   1  SEGMENT LENGTH:      52362      RECORD LENGTH: 524288

 Memory used in sort:       0.61 MW

 SORT1 READ      451878. AND WROTE       51251. INTEGRALS IN      1 RECORDS. CPU TIME:     0.02 SEC, REAL TIME:     0.02 SEC
 SORT2 READ      361447. AND WROTE      366861. INTEGRALS IN     14 RECORDS. CPU TIME:     0.00 SEC, REAL TIME:     0.01 SEC

 Node minimum:       51877.  Node maximum:       54144. integrals

 OPERATOR DM      FOR CENTER  0  COORDINATES:    0.000000    0.000000    0.000000


 **********************************************************************************************************************************
 DATASETS  * FILE   NREC   LENGTH (MB)   RECORD NAMES
              1      18       19.18       500      610      700      900      950      970     1000      129      960     1100   
                                          VAR    BASINP    GEOM    SYMINP    ZMAT    AOBASIS   BASIS     P2S    ABASIS      S 
                                         1400     1410     1200     1210     1080     1600     1650     1700   
                                           T        V       H0       H01     AOSYM     SMH    MOLCAS    OPER   

 PROGRAMS   *        TOTAL       INT
 CPU TIMES  *         0.78      0.66
 REAL TIME  *         1.33 SEC
 DISK USED  *        32.44 MB      
 GA USED    *         0.00 MB       (max)       0.00 MB       (current)
 **********************************************************************************************************************************

 Density functional group B3LYP3=B88+DIRAC+LYP+VWN3
 Functional: B88(Automatically generated (new) B88)                            Gradient terms: 1
 Functional: DIRAC(Automatically generated (new) DIRAC)                        Gradient terms: 0
 Functional: LYP(Automatically generated (new) LYP)                            Gradient terms: 1
 Functional: VWN3(Automatically generated (new) VWN3)                          Gradient terms: 0
 Use grid at  1800.2
 

 Exact exchange will be calculated, factor:  0.2000

 Functional: B88                       Factor:  0.7200
 Functional: DIRAC                     Factor:  0.0800
 Functional: LYP                       Factor:  0.8100
 Functional: VWN3                      Factor:  0.1900
 
 Generated new metagrid on record  1800.2 with target accuracy 1.0D-06 and 11500 points in CPU time    0.1
 Computed new grid on record 1800.1 in CPU time    0.1
   41913 words reserved for DFT integration

 PROGRAM * RKS-SCF (Restricted closed shell Kohn-Sham)     Authors: W. Meyer, H.-J. Werner, P.J. Knowles, 1993

 NUMBER OF ELECTRONS:       9+    9-
 CONVERGENCE THRESHOLDS:    1.00E-10 (Density)    1.00E-10 (Energy)
 MAX. NUMBER OF ITERATIONS:      300
 INTERPOLATION TYPE:            DIIS
 INTERPOLATION STEPS:              2 (START)      1 (STEP)
 LEVEL SHIFTS:                  0.00 (CLOSED)  0.00 (OPEN) 



 Use fine grid record 1800.2 for energy threshold  1.0D-06
 Orbital guess generated from atomic densities. Full valence occupancy:   11   3

 Molecular orbital dump at record        2100.2

 Initial occupancy:   7   2

 ITERATION    DDIFF          GRAD             ENERGY        2-EL.EN.            DIPOLE MOMENTS         DIIS   ORB.
    1      0.000D+00      0.000D+00      -115.65275458    192.619588   -0.91643    0.00000    0.45840    0    start
    2      0.000D+00      0.190D-01      -115.60692973    180.435035   -0.06800    0.00000   -0.06420    1    diag
    3      0.629D-01      0.260D-01      -115.72023806    187.295360   -0.55234    0.00000    0.29932    2    diag
    4      0.341D-01      0.217D-02      -115.72096613    187.331609   -0.54450    0.00000    0.25902    3    diag
    5      0.406D-02      0.834D-03      -115.72108691    187.277159   -0.54716    0.00000    0.26514    4    diag
    6      0.126D-02      0.110D-03      -115.72108907    187.294312   -0.54654    0.00000    0.26569    5    diag
    7      0.161D-03      0.814D-05      -115.72108908    187.295713   -0.54697    0.00000    0.26568    6    diag
    8      0.141D-04      0.149D-05      -115.72108908    187.295901   -0.54689    0.00000    0.26571    7    diag
    9      0.293D-05      0.213D-06      -115.72108908    187.295883   -0.54690    0.00000    0.26570    8    diag
   10      0.310D-06      0.305D-07      -115.72108908    187.295882   -0.54690    0.00000    0.26570    9    orth
   11      0.490D-07      0.278D-08      -115.72108908    187.295881   -0.54690    0.00000    0.26570    9    diag
   12      0.476D-08      0.451D-09      -115.72108908    187.295882   -0.54690    0.00000    0.26570    9    diag
   13      0.639D-09      0.362D-10      -115.72108908    187.295882   -0.54690    0.00000    0.26570    9    diag
   14      0.881D-10      0.700D-11      -115.72108908    187.295882   -0.54690    0.00000    0.26570    0    orth

 Final occupancy:   7   2

 !RKS STATE 1.1 Energy               -115.721089080858
 Nuclear energy                        40.34989139
 One-electron energy                 -237.17016721
 Two-electron energy                   93.64794076
 SCF exchange energy                  -14.83018928     Factor= 0.2000
 Density functional                   -12.54875402     B88=-14.87036956 DIRAC=-13.40890515 LYP= -0.59562921 VWN3= -1.51008348
 Virial quotient                       -1.00665420
 !RKS STATE 1.1 Dipole moment          -0.54690049     0.00000000     0.26570392
 Dipole moment /Debye                  -1.38999135     0.00000000     0.67530776

 Orbital energies:

         1.1          2.1          3.1          4.1          5.1          6.1          7.1          8.1          9.1
    -19.130063   -10.226835    -1.012698    -0.669286    -0.497104    -0.419891    -0.324687     0.049544     0.092737

         1.2          2.2          3.2          4.2
     -0.436926    -0.261241     0.134912     0.464505

 HOMO      2.2    -0.261241 =      -7.1087eV
 LUMO      8.1     0.049544 =       1.3482eV
 LUMO-HOMO         0.310785 =       8.4569eV


 **********************************************************************************************************************************
 DATASETS  * FILE   NREC   LENGTH (MB)   RECORD NAMES
              1      19       19.18       500      610      700      900      950      970     1000      129      960     1100   
                                          VAR    BASINP    GEOM    SYMINP    ZMAT    AOBASIS   BASIS     P2S    ABASIS      S 
                                         1400     1410     1200     1210     1080     1600     1650     1700     1800   
                                           T        V       H0       H01     AOSYM     SMH    MOLCAS    OPER     GRID   

              2       5        0.46       700     1000      520     1800     2100   
                                         GEOM     BASIS   MCVARS    GRID      RKS  

 PROGRAMS   *        TOTAL       RKS       INT
 CPU TIMES  *         1.11      0.33      0.66
 REAL TIME  *         1.71 SEC
 DISK USED  *       170.93 MB      
 SF USED    *         0.01 MB      
 GA USED    *         0.43 MB       (max)       0.43 MB       (current)
 **********************************************************************************************************************************


 PROGRAM * OPT (Geometry optimization)     Authors: F. Eckert and H.-J. Werner


 BFGS update of hessian

 Running default procedure: RKS-SCF000

 Geometry optimization using default procedure for command RKS-SCF

 Inactive variables:    D1

 Active variables:      R1 R2 A1 R3 A2 R4
                        A3 D2

 Geometry written to block  1 of record 700
1PROGRAM * ALASKA (Gradient of the energy)     Author: R. Lindh

 Orbitals from record         2100.2

 Number of closed-shell orbitals:  9 (  7  2 )
 Number of occupied orbitals:      9 (  7  2 )

 Number of electrons= 18     Singlet     Space symmetry=1      Wavefunction type: CLOSED          

 Gradient contributions of integration grid neglected (GRIDGRAD=0).
 Computed new grid on record 1800.1 in CPU time    0.0

 DFT GRADIENT, EXFAC=     0.200

 RKS GRADIENT FOR STATE 1.1

 Atom          dE/dx               dE/dy               dE/dz

   1        -0.021745265         0.000000000        -0.004953259
   2         0.016379671         0.000000000         0.022579032
   3         0.002320205         0.000000000        -0.008111510
   4         0.003926991         0.000000000         0.003189998
   5        -0.000438114        -0.004380202        -0.006356090
   6        -0.000438114         0.004380202        -0.006356090

 Nuclear force contribution to virial =         0.011836034
 Reading points  1 to  1 from record 700.2,  wavefunction type=RKS-SCF000      

 Making model hessian for Z-matrix coordinates
 No hessian update for point  1

 Entering Rational Function Geometry Optimization

 Optimization point 1

 Variable                      Last           Current        Next           Gradient       Hessian

 E(RKS-SCF000) / Hartree     0.00000000  -115.72108908  -115.72284590
 R1 / ANGSTROM               0.00000000     0.99200000     0.97379231     0.04186834     2.31946875
 R2 / ANGSTROM               0.00000000     1.39800000     1.41157380    -0.03387428     2.37839542
 A1 / DEGREE                 0.00000000   106.00000000   107.06066181    -0.00008402     0.00007278
 R3 / ANGSTROM               0.00000000     1.10900000     1.10354699     0.00915613     1.63490512
 A2 / DEGREE                 0.00000000   108.90000000   107.04774168     0.00028218     0.00007787
 R4 / ANGSTROM               0.00000000     1.11200000     1.10935689     0.00674317     3.23612976
 A3 / DEGREE                 0.00000000   108.20000000   106.91448137     0.00017494     0.00012064
 D2 / DEGREE                 0.00000000   119.90000000   121.90000000    -0.00049717     0.00016041
 Convergence:                0.00000000  (line search)     0.07129263     0.04522069  (total)

 Geometry written to block  2 of record 700


 Recomputing integrals since geometry changed

1PROGRAM * SEWARD (Integral evaluation for generally contracted gaussian basis sets)     Author: Roland Lindh, 1990

 Geometry written to block  2 of record 700

 Orientation using atomic masses  
 Molecule type: Asymmetric top
 Symmetry elements: Y
 Rotational constants:      24.8374268     23.9697792    126.0289393 GHz  (calculated with average atomic masses)

 Point group  Cs  



 ATOMIC COORDINATES

 NR  ATOM    CHARGE       X              Y              Z

   1  H       1.00   -1.603640941    0.000000000   -1.939693720
   2  O       8.00    0.122373653    0.000000000   -1.301561682
   3  C       6.00   -0.027896387    0.000000000    1.361690187
   4  H       1.00    1.928267088    0.000000000    2.084410160
   5  H       1.00   -0.967341907   -1.702775239    2.144512397
   6  H       1.00   -0.967341907    1.702775239    2.144512397

 Bond lengths in Bohr (Angstrom)

 1-2  1.840200771  2-3  2.667487883  3-4  2.085401568  3-5  2.096380694  3-6  2.096380694
     ( 0.973792311)     ( 1.411573798)     ( 1.103546985)     ( 1.109356889)     ( 1.109356889)

 Bond angles

  1-2-3  107.06066181   2-3-4  107.04774168   2-3-5  113.45744487   2-3-6  113.45744487

  4-3-5  106.91448137   4-3-6  106.91448137   5-3-6  108.63176210

 NUCLEAR CHARGE:                   18
 NUMBER OF PRIMITIVE AOS:          82
 NUMBER OF SYMMETRY AOS:           80
 NUMBER OF CONTRACTIONS:           48   (  33A'  +  15A"  )
 NUMBER OF CORE ORBITALS:           2   (   2A'  +   0A"  )
 NUMBER OF VALENCE ORBITALS:       12   (   9A'  +   3A"  )


 NUCLEAR REPULSION ENERGY   40.19578336

 Eigenvalues of metric

         1 0.980E-02 0.176E-01 0.383E-01 0.395E-01 0.508E-01 0.539E-01 0.739E-01 0.103E+00
         2 0.390E-01 0.481E-01 0.128E+00 0.177E+00 0.333E+00 0.479E+00 0.592E+00 0.918E+00


 Contracted 2-electron integrals neglected if value below      1.0D-14
 AO integral compression algorithm  1   Integral accuracy      1.0D-14

     4.456 MB (compressed) written to integral file (100.0%)

     Node minimum: 0.524 MB, node maximum: 0.786 MB


 NUMBER OF SORTED TWO-ELECTRON INTEGRALS:      52362.     BUFFER LENGTH:  32768
 NUMBER OF SEGMENTS:   1  SEGMENT LENGTH:      52362      RECORD LENGTH: 524288

 Memory used in sort:       0.61 MW

 SORT1 READ      451878. AND WROTE       51251. INTEGRALS IN      1 RECORDS. CPU TIME:     0.02 SEC, REAL TIME:     0.02 SEC
 SORT2 READ      361447. AND WROTE      366861. INTEGRALS IN     14 RECORDS. CPU TIME:     0.00 SEC, REAL TIME:     0.01 SEC

 Node minimum:       51877.  Node maximum:       54144. integrals

 OPERATOR DM      FOR CENTER  0  COORDINATES:    0.000000    0.000000    0.000000
 Density functional group B3LYP3=B88+DIRAC+LYP+VWN3
 Functional: B88(Automatically generated (new) B88)                            Gradient terms: 1
 Functional: DIRAC(Automatically generated (new) DIRAC)                        Gradient terms: 0
 Functional: LYP(Automatically generated (new) LYP)                            Gradient terms: 1
 Functional: VWN3(Automatically generated (new) VWN3)                          Gradient terms: 0
 Use grid at  1800.2
 

 Exact exchange will be calculated, factor:  0.2000

 Functional: B88                       Factor:  0.7200
 Functional: DIRAC                     Factor:  0.0800
 Functional: LYP                       Factor:  0.8100
 Functional: VWN3                      Factor:  0.1900
 
 Generated new metagrid on record  1800.2 with target accuracy 1.0D-06 and 11636 points in CPU time    0.1
 Computed new grid on record 1800.1 in CPU time    0.1
   41913 words reserved for DFT integration

 PROGRAM * RKS-SCF (Restricted closed shell Kohn-Sham)     Authors: W. Meyer, H.-J. Werner, P.J. Knowles, 1993

 NUMBER OF ELECTRONS:       9+    9-
 CONVERGENCE THRESHOLDS:    1.00E-10 (Density)    1.00E-10 (Energy)
 MAX. NUMBER OF ITERATIONS:      300
 INTERPOLATION TYPE:            DIIS
 INTERPOLATION STEPS:              2 (START)      1 (STEP)
 LEVEL SHIFTS:                  0.00 (CLOSED)  0.00 (OPEN) 

 Number of closed-shell orbitals:    9 (   7   2 )


 Use fine grid record 1800.2 for energy threshold  1.0D-06
 Molecular orbitals read from record     2100.2  Type=RKS/CANONICAL (state 1.1)

 Molecular orbital dump at record        2100.2

 ITERATION    DDIFF          GRAD             ENERGY        2-EL.EN.            DIPOLE MOMENTS         DIIS   ORB.
    1      0.000D+00      0.000D+00      -115.72211752    186.915272   -0.53381    0.00000    0.26695    0    start
    2      0.000D+00      0.140D-02      -115.72269199    186.999452   -0.54424    0.00000    0.27880    1    diag
    3      0.415D-02      0.346D-03      -115.72268538    186.902528   -0.53865    0.00000    0.26358    2    diag
    4      0.903D-03      0.430D-03      -115.72271320    186.961743   -0.54357    0.00000    0.27088    3    diag
    5      0.517D-03      0.337D-04      -115.72271337    186.956278   -0.54279    0.00000    0.27091    4    diag
    6      0.499D-04      0.659D-05      -115.72271337    186.958518   -0.54298    0.00000    0.27090    5    diag
    7      0.150D-04      0.353D-05      -115.72271338    186.957604   -0.54295    0.00000    0.27088    6    diag
    8      0.631D-05      0.272D-06      -115.72271338    186.957649   -0.54294    0.00000    0.27088    7    orth
    9      0.470D-06      0.452D-07      -115.72271338    186.957646   -0.54294    0.00000    0.27088    8    diag
   10      0.924D-07      0.574D-08      -115.72271338    186.957646   -0.54294    0.00000    0.27088    9    diag
   11      0.922D-08      0.812D-09      -115.72271338    186.957646   -0.54294    0.00000    0.27088    9    diag
   12      0.120D-08      0.105D-09      -115.72271338    186.957646   -0.54294    0.00000    0.27088    9    diag
   13      0.177D-09      0.119D-10      -115.72271338    186.957646   -0.54294    0.00000    0.27088    9    diag
   14      0.228D-10      0.207D-11      -115.72271338    186.957646   -0.54294    0.00000    0.27088    0    orth

 Final occupancy:   7   2

 !RKS STATE 1.1 Energy               -115.722713375621
 Nuclear energy                        40.19578336
 One-electron energy                 -236.84667277
 Two-electron energy                   93.47882291
 SCF exchange energy                  -14.83275108     Factor= 0.2000
 Density functional                   -12.55064688     B88=-14.87285186 DIRAC=-13.41069263 LYP= -0.59555480 VWN3= -1.51020389
 Virial quotient                       -1.00663115
 !RKS STATE 1.1 Dipole moment          -0.54294166     0.00000000     0.27087919
 Dipole moment /Debye                  -1.37992967     0.00000000     0.68846113

 Orbital energies:

         1.1          2.1          3.1          4.1          5.1          6.1          7.1          8.1          9.1
    -19.131660   -10.226784    -1.012022    -0.674395    -0.500138    -0.417134    -0.327870     0.054406     0.091604

         1.2          2.2          3.2          4.2
     -0.432255    -0.265028     0.137071     0.463144

 HOMO      2.2    -0.265028 =      -7.2118eV
 LUMO      8.1     0.054406 =       1.4805eV
 LUMO-HOMO         0.319434 =       8.6923eV


 **********************************************************************************************************************************
 DATASETS  * FILE   NREC   LENGTH (MB)   RECORD NAMES
              1      19       19.18       500      610      700      900      950      970     1000      129      960     1100   
                                          VAR    BASINP    GEOM    SYMINP    ZMAT    AOBASIS   BASIS     P2S    ABASIS      S 
                                         1400     1410     1200     1210     1080     1600     1650     1700     1800   
                                           T        V       H0       H01     AOSYM     SMH    MOLCAS    OPER     GRID   

              2       5        0.46       700     1000      520     1800     2100   
                                         GEOM     BASIS   MCVARS    GRID      RKS  

 PROGRAMS   *        TOTAL       RKS       RKS       INT
 CPU TIMES  *         3.71      0.49      0.33      0.66
 REAL TIME  *         5.44 SEC
 DISK USED  *       170.93 MB      
 SF USED    *         0.01 MB      
 GA USED    *         0.44 MB       (max)       0.44 MB       (current)
 **********************************************************************************************************************************

 ITER.   ENERGY(OLD)    ENERGY(NEW)      DE          GRADMAX     GRADNORM    GRADRMS     STEPMAX     STEPLEN     STEPRMS   CPU-time
   1  -115.72108908  -115.72271338    -0.00162429  0.02848601  0.04522069  0.01598793  0.03490659  0.07129263  0.00891158      2.60

 Current geometry (xyz format, in Angstrom)

    6
 RKS-SCF000/CC-PVDZ  ENERGY=-115.72271338
 H         -0.8486102404        0.0000000000       -1.0264417129
 O          0.0647573484        0.0000000000       -0.6887567809
 C         -0.0147621321        0.0000000000        0.7205754155
 H          1.0203949997        0.0000000000        1.1030223550
 H         -0.5118952925       -0.9010698519        1.1348270892
 H         -0.5118952925        0.9010698519        1.1348270892

 **********************************************************************************************************************************

 Current variables
 R1=                  0.97379231 ANGSTROM
 R2=                  1.41157380 ANGSTROM
 A1=                107.06066181 DEGREE
 R3=                  1.10354699 ANGSTROM
 A2=                107.04774168 DEGREE
 R4=                  1.10935689 ANGSTROM
 A3=                106.91448137 DEGREE
 D2=                121.90000000 DEGREE

 **********************************************************************************************************************************
1PROGRAM * ALASKA (Gradient of the energy)     Author: R. Lindh

 Orbitals from record         2100.2

 Number of closed-shell orbitals:  9 (  7  2 )
 Number of occupied orbitals:      9 (  7  2 )

 Number of electrons= 18     Singlet     Space symmetry=1      Wavefunction type: CLOSED          

 Gradient contributions of integration grid neglected (GRIDGRAD=0).

 DFT GRADIENT, EXFAC=     0.200

 RKS GRADIENT FOR STATE 1.1

 Atom          dE/dx               dE/dy               dE/dz

   1        -0.005709587         0.000000000        -0.001092075
   2         0.006916134         0.000000000         0.003735269
   3        -0.004329438         0.000000000        -0.004576269
   4         0.000758631         0.000000000         0.000812407
   5         0.001178191        -0.000594890         0.000552092
   6         0.001178191         0.000594890         0.000552092

 Nuclear force contribution to virial =         0.006419073
 Reading points  1 to  2 from record 700.2,  wavefunction type=RKS-SCF000      

 Making model hessian for Z-matrix coordinates
 BFGS update of hessian using  1 points

 Entering Rational Function Geometry Optimization

 Optimization point 2

 Variable                      Last           Current        Next           Gradient       Hessian

 E(RKS-SCF000) / Hartree  -115.72108908  -115.72271338  -115.72280551
 R1 / ANGSTROM               0.99200000     0.97379231     0.96789751     0.01081093     2.09014403
 R2 / ANGSTROM               1.39800000     1.41157380     1.41459484    -0.00488880     2.21845834
 A1 / DEGREE               106.00000000   107.06066181   107.59699695    -0.00003129     0.00007128
 R3 / ANGSTROM               1.10900000     1.10354699     1.10196469     0.00187681     1.65169919
 A2 / DEGREE               108.90000000   107.04774168   107.15720314    -0.00003213     0.00008871
 R4 / ANGSTROM               1.11200000     1.10935689     1.10902439     0.00060992     3.25183854
 A3 / DEGREE               108.20000000   106.91448137   107.68821796    -0.00010276     0.00013368
 D2 / DEGREE               119.90000000   121.90000000   122.07506579    -0.00001550     0.00019431
 Convergence:                0.00000000  (line search)     0.02118945     0.00908665  (total)

 Geometry written to block  3 of record 700


 Recomputing integrals since geometry changed

1PROGRAM * SEWARD (Integral evaluation for generally contracted gaussian basis sets)     Author: Roland Lindh, 1990

 Geometry written to block  3 of record 700

 Orientation using atomic masses  
 Molecule type: Asymmetric top
 Symmetry elements: Y
 Rotational constants:      24.7856332     23.8863315    126.3626464 GHz  (calculated with average atomic masses)

 Point group  Cs  



 ATOMIC COORDINATES

 NR  ATOM    CHARGE       X              Y              Z

   1  H       1.00   -1.589734809    0.000000000   -1.950303548
   2  O       8.00    0.121149799    0.000000000   -1.303512417
   3  C       6.00   -0.023965298    0.000000000    1.365742700
   4  H       1.00    1.929495376    0.000000000    2.087150266
   5  H       1.00   -0.988617958   -1.691887510    2.139783975
   6  H       1.00   -0.988617958    1.691887510    2.139783975

 Bond lengths in Bohr (Angstrom)

 1-2  1.829061210  2-3  2.673196826  3-4  2.082411458  3-5  2.095752370  3-6  2.095752370
     ( 0.967897510)     ( 1.414594841)     ( 1.101964687)     ( 1.109024394)     ( 1.109024394)

 Bond angles

  1-2-3  107.59699695   2-3-4  107.15720314   2-3-5  113.18993571   2-3-6  113.18993571

  4-3-5  107.68821796   4-3-6  107.68821796   5-3-6  107.66469390

 NUCLEAR CHARGE:                   18
 NUMBER OF PRIMITIVE AOS:          82
 NUMBER OF SYMMETRY AOS:           80
 NUMBER OF CONTRACTIONS:           48   (  33A'  +  15A"  )
 NUMBER OF CORE ORBITALS:           2   (   2A'  +   0A"  )
 NUMBER OF VALENCE ORBITALS:       12   (   9A'  +   3A"  )


 NUCLEAR REPULSION ENERGY   40.18405644

 Eigenvalues of metric

         1 0.980E-02 0.177E-01 0.381E-01 0.390E-01 0.503E-01 0.534E-01 0.739E-01 0.103E+00
         2 0.389E-01 0.488E-01 0.128E+00 0.178E+00 0.334E+00 0.481E+00 0.587E+00 0.919E+00


 Contracted 2-electron integrals neglected if value below      1.0D-14
 AO integral compression algorithm  1   Integral accuracy      1.0D-14

     4.194 MB (compressed) written to integral file (100.0%)

     Node minimum: 0.524 MB, node maximum: 0.786 MB


 NUMBER OF SORTED TWO-ELECTRON INTEGRALS:      52362.     BUFFER LENGTH:  32768
 NUMBER OF SEGMENTS:   1  SEGMENT LENGTH:      52362      RECORD LENGTH: 524288

 Memory used in sort:       0.61 MW

 SORT1 READ      451878. AND WROTE       51251. INTEGRALS IN      1 RECORDS. CPU TIME:     0.02 SEC, REAL TIME:     0.03 SEC
 SORT2 READ      361447. AND WROTE      366861. INTEGRALS IN     14 RECORDS. CPU TIME:     0.00 SEC, REAL TIME:     0.01 SEC

 Node minimum:       51877.  Node maximum:       54144. integrals

 OPERATOR DM      FOR CENTER  0  COORDINATES:    0.000000    0.000000    0.000000
 Density functional group B3LYP3=B88+DIRAC+LYP+VWN3
 Functional: B88(Automatically generated (new) B88)                            Gradient terms: 1
 Functional: DIRAC(Automatically generated (new) DIRAC)                        Gradient terms: 0
 Functional: LYP(Automatically generated (new) LYP)                            Gradient terms: 1
 Functional: VWN3(Automatically generated (new) VWN3)                          Gradient terms: 0
 Use grid at  1800.2
 

 Exact exchange will be calculated, factor:  0.2000

 Functional: B88                       Factor:  0.7200
 Functional: DIRAC                     Factor:  0.0800
 Functional: LYP                       Factor:  0.8100
 Functional: VWN3                      Factor:  0.1900
 
 Generated new metagrid on record  1800.2 with target accuracy 1.0D-06 and 11828 points in CPU time    0.1
 Computed new grid on record 1800.1 in CPU time    0.1
   41913 words reserved for DFT integration

 PROGRAM * RKS-SCF (Restricted closed shell Kohn-Sham)     Authors: W. Meyer, H.-J. Werner, P.J. Knowles, 1993

 NUMBER OF ELECTRONS:       9+    9-
 CONVERGENCE THRESHOLDS:    1.00E-10 (Density)    1.00E-10 (Energy)
 MAX. NUMBER OF ITERATIONS:      300
 INTERPOLATION TYPE:            DIIS
 INTERPOLATION STEPS:              2 (START)      1 (STEP)
 LEVEL SHIFTS:                  0.00 (CLOSED)  0.00 (OPEN) 

 Number of closed-shell orbitals:    9 (   7   2 )


 Use fine grid record 1800.2 for energy threshold  1.0D-06
 Molecular orbitals read from record     2100.2  Type=RKS/CANONICAL (state 1.1)

 Molecular orbital dump at record        2100.2

 ITERATION    DDIFF          GRAD             ENERGY        2-EL.EN.            DIPOLE MOMENTS         DIIS   ORB.
    1      0.000D+00      0.000D+00      -115.72276067    186.925228   -0.54123    0.00000    0.27139    0    start
    2      0.000D+00      0.361D-03      -115.72279857    186.949047   -0.54232    0.00000    0.27467    1    diag
    3      0.130D-02      0.620D-04      -115.72279858    186.926678   -0.54195    0.00000    0.27163    2    diag
    4      0.157D-03      0.686D-04      -115.72279926    186.940669   -0.54265    0.00000    0.27312    3    diag
    5      0.904D-04      0.132D-04      -115.72279929    186.939346   -0.54235    0.00000    0.27307    4    diag
    6      0.173D-04      0.119D-05      -115.72279929    186.939047   -0.54238    0.00000    0.27306    5    diag
    7      0.298D-05      0.660D-06      -115.72279929    186.939201   -0.54238    0.00000    0.27306    6    diag
    8      0.122D-05      0.957D-07      -115.72279929    186.939182   -0.54237    0.00000    0.27306    7    orth
    9      0.153D-06      0.962D-08      -115.72279929    186.939182   -0.54238    0.00000    0.27306    8    diag
   10      0.215D-07      0.148D-08      -115.72279929    186.939182   -0.54238    0.00000    0.27306    9    diag
   11      0.266D-08      0.195D-09      -115.72279929    186.939182   -0.54238    0.00000    0.27306    9    diag
   12      0.287D-09      0.231D-10      -115.72279929    186.939182   -0.54238    0.00000    0.27306    9    diag
   13      0.471D-10      0.286D-11      -115.72279929    186.939182   -0.54238    0.00000    0.27306    0    orth

 Final occupancy:   7   2

 !RKS STATE 1.1 Energy               -115.722799290332
 Nuclear energy                        40.18405644
 One-electron energy                 -236.82404820
 Two-electron energy                   93.46959101
 SCF exchange energy                  -14.83539126     Factor= 0.2000
 Density functional                   -12.55239855     B88=-14.87499898 DIRAC=-13.41263344 LYP= -0.59558832 VWN3= -1.51032669
 Virial quotient                       -1.00657665
 !RKS STATE 1.1 Dipole moment          -0.54237516     0.00000000     0.27305862
 Dipole moment /Debye                  -1.37848986     0.00000000     0.69400032

 Orbital energies:

         1.1          2.1          3.1          4.1          5.1          6.1          7.1          8.1          9.1
    -19.130524   -10.226960    -1.011540    -0.675228    -0.500738    -0.417759    -0.328373     0.055128     0.092104

         1.2          2.2          3.2          4.2
     -0.430792    -0.264422     0.136716     0.459639

 HOMO      2.2    -0.264422 =      -7.1953eV
 LUMO      8.1     0.055128 =       1.5001eV
 LUMO-HOMO         0.319551 =       8.6954eV


 **********************************************************************************************************************************
 DATASETS  * FILE   NREC   LENGTH (MB)   RECORD NAMES
              1      19       19.18       500      610      700      900      950      970     1000      129      960     1100   
                                          VAR    BASINP    GEOM    SYMINP    ZMAT    AOBASIS   BASIS     P2S    ABASIS      S 
                                         1400     1410     1200     1210     1080     1600     1650     1700     1800   
                                           T        V       H0       H01     AOSYM     SMH    MOLCAS    OPER     GRID   

              2       5        0.46       700     1000      520     1800     2100   
                                         GEOM     BASIS   MCVARS    GRID      RKS  

 PROGRAMS   *        TOTAL       RKS       RKS       INT
 CPU TIMES  *         6.71      0.49      0.33      0.66
 REAL TIME  *         8.50 SEC
 DISK USED  *       170.93 MB      
 SF USED    *         0.01 MB      
 GA USED    *         0.44 MB       (max)       0.44 MB       (current)
 **********************************************************************************************************************************
   2  -115.72271338  -115.72279929    -0.00008591  0.00588750  0.00908665  0.00321262  0.01350425  0.02118945  0.00264868      5.60

 Current geometry (xyz format, in Angstrom)

    6
 RKS-SCF000/CC-PVDZ  ENERGY=-115.72279929
 H         -0.8412514324        0.0000000000       -1.0320561918
 O          0.0641097128        0.0000000000       -0.6897890653
 C         -0.0126818895        0.0000000000        0.7227199126
 H          1.0210449816        0.0000000000        1.1044723566
 H         -0.5231540937       -0.8953083136        1.1323249160
 H         -0.5231540937        0.8953083136        1.1323249160

 **********************************************************************************************************************************

 Current variables
 R1=                  0.96789751 ANGSTROM
 R2=                  1.41459484 ANGSTROM
 A1=                107.59699695 DEGREE
 R3=                  1.10196469 ANGSTROM
 A2=                107.15720314 DEGREE
 R4=                  1.10902439 ANGSTROM
 A3=                107.68821796 DEGREE
 D2=                122.07506579 DEGREE

 **********************************************************************************************************************************
1PROGRAM * ALASKA (Gradient of the energy)     Author: R. Lindh

 Orbitals from record         2100.2

 Number of closed-shell orbitals:  9 (  7  2 )
 Number of occupied orbitals:      9 (  7  2 )

 Number of electrons= 18     Singlet     Space symmetry=1      Wavefunction type: CLOSED          

 Gradient contributions of integration grid neglected (GRIDGRAD=0).

 DFT GRADIENT, EXFAC=     0.200

 RKS GRADIENT FOR STATE 1.1

 Atom          dE/dx               dE/dy               dE/dz

   1        -0.000326244         0.000000000        -0.000199961
   2         0.000185314         0.000000000         0.000681603
   3         0.000067781         0.000000000        -0.001376002
   4         0.000511981         0.000000000         0.000359724
   5        -0.000221063         0.000397263         0.000256129
   6        -0.000221063        -0.000397263         0.000256129

 Nuclear force contribution to virial =         0.000089339
 Reading points  1 to  3 from record 700.2,  wavefunction type=RKS-SCF000      

 Making model hessian for Z-matrix coordinates
 BFGS update of hessian using  2 points

 Entering Rational Function Geometry Optimization

 Optimization point 3

 Variable                      Last           Current        Next           Gradient       Hessian

 E(RKS-SCF000) / Hartree  -115.72271338  -115.72279929  -115.72280383
 R1 / ANGSTROM               0.97379231     0.96789751     0.96732594     0.00068952     1.99734923
 R2 / ANGSTROM               1.41157380     1.41459484     1.41523033    -0.00096518     2.15934021
 A1 / DEGREE               107.06066181   107.59699695   107.59111314     0.00000197     0.00007193
 R3 / ANGSTROM               1.10354699     1.10196469     1.10123677     0.00114309     1.64309363
 A2 / DEGREE               107.04774168   107.15720314   107.03766997     0.00000317     0.00008947
 R4 / ANGSTROM               1.10935689     1.10902439     1.10914309    -0.00047000     3.25926235
 A3 / DEGREE               106.91448137   107.68821796   107.66512563     0.00001201     0.00014530
 D2 / DEGREE               121.90000000   122.07506579   121.88017760     0.00003342     0.00020398
 Convergence:                0.00000000  (line search)     0.00454384     0.00223756  (total)

 Geometry written to block  4 of record 700


 Recomputing integrals since geometry changed

1PROGRAM * SEWARD (Integral evaluation for generally contracted gaussian basis sets)     Author: Roland Lindh, 1990

 Geometry written to block  4 of record 700

 Orientation using atomic masses  
 Molecule type: Asymmetric top
 Symmetry elements: Y
 Rotational constants:      24.7735190     23.8896800    126.2885135 GHz  (calculated with average atomic masses)

 Point group  Cs  



 ATOMIC COORDINATES

 NR  ATOM    CHARGE       X              Y              Z

   1  H       1.00   -1.588698823    0.000000000   -1.950295217
   2  O       8.00    0.121121700    0.000000000   -1.303743849
   3  C       6.00   -0.024554887    0.000000000    1.366683366
   4  H       1.00    1.928981934    0.000000000    2.083903197
   5  H       1.00   -0.985143327   -1.695883512    2.137635474
   6  H       1.00   -0.985143327    1.695883512    2.137635474

 Bond lengths in Bohr (Angstrom)

 1-2  1.827981097  2-3  2.674397722  3-4  2.081035895  3-5  2.095976668  3-6  2.095976668
     ( 0.967325939)     ( 1.415230327)     ( 1.101236771)     ( 1.109143087)     ( 1.109143087)

 Bond angles

  1-2-3  107.59111314   2-3-4  107.03766997   2-3-5  113.09411891   2-3-6  113.09411891

  4-3-5  107.66512563   4-3-6  107.66512563   5-3-6  108.01886240

 NUCLEAR CHARGE:                   18
 NUMBER OF PRIMITIVE AOS:          82
 NUMBER OF SYMMETRY AOS:           80
 NUMBER OF CONTRACTIONS:           48   (  33A'  +  15A"  )
 NUMBER OF CORE ORBITALS:           2   (   2A'  +   0A"  )
 NUMBER OF VALENCE ORBITALS:       12   (   9A'  +   3A"  )


 NUCLEAR REPULSION ENERGY   40.18199014

 Eigenvalues of metric

         1 0.979E-02 0.177E-01 0.381E-01 0.390E-01 0.504E-01 0.533E-01 0.740E-01 0.103E+00
         2 0.390E-01 0.487E-01 0.128E+00 0.178E+00 0.333E+00 0.481E+00 0.586E+00 0.919E+00


 Contracted 2-electron integrals neglected if value below      1.0D-14
 AO integral compression algorithm  1   Integral accuracy      1.0D-14

     4.456 MB (compressed) written to integral file (100.0%)

     Node minimum: 0.524 MB, node maximum: 0.786 MB


 NUMBER OF SORTED TWO-ELECTRON INTEGRALS:      52362.     BUFFER LENGTH:  32768
 NUMBER OF SEGMENTS:   1  SEGMENT LENGTH:      52362      RECORD LENGTH: 524288

 Memory used in sort:       0.61 MW

 SORT1 READ      451878. AND WROTE       51251. INTEGRALS IN      1 RECORDS. CPU TIME:     0.02 SEC, REAL TIME:     0.03 SEC
 SORT2 READ      361447. AND WROTE      366861. INTEGRALS IN     14 RECORDS. CPU TIME:     0.00 SEC, REAL TIME:     0.00 SEC

 Node minimum:       51877.  Node maximum:       54144. integrals

 OPERATOR DM      FOR CENTER  0  COORDINATES:    0.000000    0.000000    0.000000
 Density functional group B3LYP3=B88+DIRAC+LYP+VWN3
 Functional: B88(Automatically generated (new) B88)                            Gradient terms: 1
 Functional: DIRAC(Automatically generated (new) DIRAC)                        Gradient terms: 0
 Functional: LYP(Automatically generated (new) LYP)                            Gradient terms: 1
 Functional: VWN3(Automatically generated (new) VWN3)                          Gradient terms: 0
 Use grid at  1800.2
 

 Exact exchange will be calculated, factor:  0.2000

 Functional: B88                       Factor:  0.7200
 Functional: DIRAC                     Factor:  0.0800
 Functional: LYP                       Factor:  0.8100
 Functional: VWN3                      Factor:  0.1900
 
 Generated new metagrid on record  1800.2 with target accuracy 1.0D-06 and 11840 points in CPU time    0.1
 Computed new grid on record 1800.1 in CPU time    0.1
   41913 words reserved for DFT integration

 PROGRAM * RKS-SCF (Restricted closed shell Kohn-Sham)     Authors: W. Meyer, H.-J. Werner, P.J. Knowles, 1993

 NUMBER OF ELECTRONS:       9+    9-
 CONVERGENCE THRESHOLDS:    1.00E-10 (Density)    1.00E-10 (Energy)
 MAX. NUMBER OF ITERATIONS:      300
 INTERPOLATION TYPE:            DIIS
 INTERPOLATION STEPS:              2 (START)      1 (STEP)
 LEVEL SHIFTS:                  0.00 (CLOSED)  0.00 (OPEN) 

 Number of closed-shell orbitals:    9 (   7   2 )


 Use fine grid record 1800.2 for energy threshold  1.0D-06
 Molecular orbitals read from record     2100.2  Type=RKS/CANONICAL (state 1.1)

 Molecular orbital dump at record        2100.2

 ITERATION    DDIFF          GRAD             ENERGY        2-EL.EN.            DIPOLE MOMENTS         DIIS   ORB.
    1      0.000D+00      0.000D+00      -115.72280294    186.936428   -0.54192    0.00000    0.27357    0    start
    2      0.000D+00      0.652D-04      -115.72280424    186.937467   -0.54157    0.00000    0.27431    1    diag
    3      0.245D-03      0.117D-04      -115.72280424    186.938600   -0.54179    0.00000    0.27440    2    diag
    4      0.358D-04      0.134D-04      -115.72280426    186.937405   -0.54165    0.00000    0.27421    3    diag
    5      0.184D-04      0.211D-05      -115.72280427    186.937874   -0.54168    0.00000    0.27428    4    diag
    6      0.310D-05      0.455D-06      -115.72280427    186.937712   -0.54167    0.00000    0.27427    5    diag
    7      0.983D-06      0.155D-06      -115.72280427    186.937751   -0.54167    0.00000    0.27427    6    diag
    8      0.246D-06      0.790D-08      -115.72280427    186.937750   -0.54167    0.00000    0.27427    7    orth
    9      0.155D-07      0.162D-08      -115.72280427    186.937750   -0.54167    0.00000    0.27427    8    diag
   10      0.343D-08      0.256D-09      -115.72280427    186.937750   -0.54167    0.00000    0.27427    9    diag
   11      0.426D-09      0.371D-10      -115.72280427    186.937750   -0.54167    0.00000    0.27427    9    diag
   12      0.449D-10      0.358D-11      -115.72280427    186.937750   -0.54167    0.00000    0.27427    0    orth

 Final occupancy:   7   2

 !RKS STATE 1.1 Energy               -115.722804265715
 Nuclear energy                        40.18199014
 One-electron energy                 -236.82106479
 Two-electron energy                   93.46887517
 SCF exchange energy                  -14.83569448     Factor= 0.2000
 Density functional                   -12.55260478     B88=-14.87525170 DIRAC=-13.41285672 LYP= -0.59559255 VWN3= -1.51034241
 Virial quotient                       -1.00656786
 !RKS STATE 1.1 Dipole moment          -0.54167241     0.00000000     0.27427097
 Dipole moment /Debye                  -1.37670376     0.00000000     0.69708162

 Orbital energies:

         1.1          2.1          3.1          4.1          5.1          6.1          7.1          8.1          9.1
    -19.130303   -10.226931    -1.011356    -0.675274    -0.500389    -0.417625    -0.328202     0.055234     0.092244

         1.2          2.2          3.2          4.2
     -0.431171    -0.264444     0.136637     0.460399

 HOMO      2.2    -0.264444 =      -7.1959eV
 LUMO      8.1     0.055234 =       1.5030eV
 LUMO-HOMO         0.319678 =       8.6989eV


 **********************************************************************************************************************************
 DATASETS  * FILE   NREC   LENGTH (MB)   RECORD NAMES
              1      19       19.18       500      610      700      900      950      970     1000      129      960     1100   
                                          VAR    BASINP    GEOM    SYMINP    ZMAT    AOBASIS   BASIS     P2S    ABASIS      S 
                                         1400     1410     1200     1210     1080     1600     1650     1700     1800   
                                           T        V       H0       H01     AOSYM     SMH    MOLCAS    OPER     GRID   

              2       5        0.46       700     1000      520     1800     2100   
                                         GEOM     BASIS   MCVARS    GRID      RKS  

 PROGRAMS   *        TOTAL       RKS       RKS       INT
 CPU TIMES  *         9.68      0.47      0.33      0.66
 REAL TIME  *        11.52 SEC
 DISK USED  *       170.93 MB      
 SF USED    *         0.01 MB      
 GA USED    *         0.44 MB       (max)       0.44 MB       (current)
 **********************************************************************************************************************************
 Freezing grid
   3  -115.72279929  -115.72280427    -0.00000498  0.00191458  0.00223756  0.00079110  0.00340144  0.00454384  0.00056798      8.57

 Current geometry (xyz format, in Angstrom)

    6
 RKS-SCF000/CC-PVDZ  ENERGY=-115.72280427
 H         -0.8407032121        0.0000000000       -1.0320517835
 O          0.0640948433        0.0000000000       -0.6899115336
 C         -0.0129938868        0.0000000000        0.7232176917
 H          1.0207732795        0.0000000000        1.1027540817
 H         -0.5213153981       -0.8974229071        1.1311879783
 H         -0.5213153981        0.8974229071        1.1311879783

 **********************************************************************************************************************************

 Current variables
 R1=                  0.96732594 ANGSTROM
 R2=                  1.41523033 ANGSTROM
 A1=                107.59111314 DEGREE
 R3=                  1.10123677 ANGSTROM
 A2=                107.03766997 DEGREE
 R4=                  1.10914309 ANGSTROM
 A3=                107.66512563 DEGREE
 D2=                121.88017760 DEGREE

 **********************************************************************************************************************************
1PROGRAM * ALASKA (Gradient of the energy)     Author: R. Lindh

 Orbitals from record         2100.2

 Number of closed-shell orbitals:  9 (  7  2 )
 Number of occupied orbitals:      9 (  7  2 )

 Number of electrons= 18     Singlet     Space symmetry=1      Wavefunction type: CLOSED          

 Gradient contributions of integration grid neglected (GRIDGRAD=0).

 DFT GRADIENT, EXFAC=     0.200

 RKS GRADIENT FOR STATE 1.1

 Atom          dE/dx               dE/dy               dE/dz

   1         0.000201984         0.000000000         0.000003062
   2        -0.000242243         0.000000000         0.000346816
   3        -0.000008453         0.000000000        -0.000543407
   4         0.000088684         0.000000000         0.000045263
   5        -0.000021702        -0.000027312         0.000063000
   6        -0.000021702         0.000027312         0.000063000

 Nuclear force contribution to virial =        -0.000880689
 Reading points  1 to  4 from record 700.2,  wavefunction type=RKS-SCF000      

 Making model hessian for Z-matrix coordinates
 BFGS update of hessian using  3 points

 Entering Rational Function Geometry Optimization

 Optimization point 4

 Variable                      Last           Current        Next           Gradient       Hessian

 E(RKS-SCF000) / Hartree  -115.72279929  -115.72280427  -115.72280453
 R1 / ANGSTROM               0.96789751     0.96732594     0.96745302    -0.00038002     2.08357732
 R2 / ANGSTROM               1.41459484     1.41523033     1.41562443    -0.00070600     2.06343801
 A1 / DEGREE               107.59699695   107.59111314   107.56106697     0.00000187     0.00007151
 R3 / ANGSTROM               1.10196469     1.10123677     1.10107194     0.00018680     1.61213314
 A2 / DEGREE               107.15720314   107.03766997   107.03118768    -0.00000110     0.00009060
 R4 / ANGSTROM               1.10902439     1.10914309     1.10907778     0.00020869     3.28925644
 A3 / DEGREE               107.68821796   107.66512563   107.67974999    -0.00000139     0.00015107
 D2 / DEGREE               122.07506579   121.88017760   121.85232315     0.00000294     0.00019270
 Convergence:                0.00000000  (line search)     0.00114624     0.00050202  (total)

 Geometry written to block  5 of record 700


 Recomputing integrals since geometry changed

1PROGRAM * SEWARD (Integral evaluation for generally contracted gaussian basis sets)     Author: Roland Lindh, 1990

 Geometry written to block  5 of record 700

 Orientation using atomic masses  
 Molecule type: Asymmetric top
 Symmetry elements: Y
 Rotational constants:      24.7657249     23.8826800    126.2622433 GHz  (calculated with average atomic masses)

 Point group  Cs  



 ATOMIC COORDINATES

 NR  ATOM    CHARGE       X              Y              Z

   1  H       1.00   -1.589238286    0.000000000   -1.949769751
   2  O       8.00    0.121152584    0.000000000   -1.304048452
   3  C       6.00   -0.024536200    0.000000000    1.367123954
   4  H       1.00    1.928796952    0.000000000    2.083994698
   5  H       1.00   -0.985137566   -1.696158272    2.137119422
   6  H       1.00   -0.985137566    1.696158272    2.137119422

 Bond lengths in Bohr (Angstrom)

 1-2  1.828221246  2-3  2.675142472  3-4  2.080724409  3-5  2.095853260  3-6  2.095853260
     ( 0.967453020)     ( 1.415624432)     ( 1.101071939)     ( 1.109077783)     ( 1.109077783)

 Bond angles

  1-2-3  107.56106697   2-3-4  107.03118768   2-3-5  113.06690315   2-3-6  113.06690315

  4-3-5  107.67974999   4-3-6  107.67974999   5-3-6  108.05372359

 NUCLEAR CHARGE:                   18
 NUMBER OF PRIMITIVE AOS:          82
 NUMBER OF SYMMETRY AOS:           80
 NUMBER OF CONTRACTIONS:           48   (  33A'  +  15A"  )
 NUMBER OF CORE ORBITALS:           2   (   2A'  +   0A"  )
 NUMBER OF VALENCE ORBITALS:       12   (   9A'  +   3A"  )


 NUCLEAR REPULSION ENERGY   40.17707931

 Eigenvalues of metric

         1 0.979E-02 0.177E-01 0.381E-01 0.390E-01 0.504E-01 0.533E-01 0.740E-01 0.103E+00
         2 0.390E-01 0.486E-01 0.128E+00 0.178E+00 0.333E+00 0.481E+00 0.587E+00 0.919E+00


 Contracted 2-electron integrals neglected if value below      1.0D-14
 AO integral compression algorithm  1   Integral accuracy      1.0D-14

     4.456 MB (compressed) written to integral file (100.0%)

     Node minimum: 0.524 MB, node maximum: 0.786 MB


 NUMBER OF SORTED TWO-ELECTRON INTEGRALS:      52362.     BUFFER LENGTH:  32768
 NUMBER OF SEGMENTS:   1  SEGMENT LENGTH:      52362      RECORD LENGTH: 524288

 Memory used in sort:       0.61 MW

 SORT1 READ      451878. AND WROTE       51251. INTEGRALS IN      1 RECORDS. CPU TIME:     0.02 SEC, REAL TIME:     0.03 SEC
 SORT2 READ      361447. AND WROTE      366861. INTEGRALS IN     21 RECORDS. CPU TIME:     0.01 SEC, REAL TIME:     0.01 SEC

 Node minimum:       51877.  Node maximum:       54144. integrals

 OPERATOR DM      FOR CENTER  0  COORDINATES:    0.000000    0.000000    0.000000
 Density functional group B3LYP3=B88+DIRAC+LYP+VWN3
 Functional: B88(Automatically generated (new) B88)                            Gradient terms: 1
 Functional: DIRAC(Automatically generated (new) DIRAC)                        Gradient terms: 0
 Functional: LYP(Automatically generated (new) LYP)                            Gradient terms: 1
 Functional: VWN3(Automatically generated (new) VWN3)                          Gradient terms: 0
 Use grid at  1800.2
 

 Exact exchange will be calculated, factor:  0.2000

 Functional: B88                       Factor:  0.7200
 Functional: DIRAC                     Factor:  0.0800
 Functional: LYP                       Factor:  0.8100
 Functional: VWN3                      Factor:  0.1900
 
 Computed new grid on record 1800.1 in CPU time    0.0
   41913 words reserved for DFT integration

 PROGRAM * RKS-SCF (Restricted closed shell Kohn-Sham)     Authors: W. Meyer, H.-J. Werner, P.J. Knowles, 1993

 NUMBER OF ELECTRONS:       9+    9-
 CONVERGENCE THRESHOLDS:    1.00E-10 (Density)    1.00E-10 (Energy)
 MAX. NUMBER OF ITERATIONS:      300
 INTERPOLATION TYPE:            DIIS
 INTERPOLATION STEPS:              2 (START)      1 (STEP)
 LEVEL SHIFTS:                  0.00 (CLOSED)  0.00 (OPEN) 

 Number of closed-shell orbitals:    9 (   7   2 )


 Use fine grid record 1800.2 for energy threshold  1.0D-06
 Molecular orbitals read from record     2100.2  Type=RKS/CANONICAL (state 1.1)

 Molecular orbital dump at record        2100.2

 ITERATION    DDIFF          GRAD             ENERGY        2-EL.EN.            DIPOLE MOMENTS         DIIS   ORB.
    1      0.000D+00      0.000D+00      -115.72280451    186.929623   -0.54182    0.00000    0.27475    0    start
    2      0.000D+00      0.198D-04      -115.72280463    186.927893   -0.54168    0.00000    0.27507    1    diag
    3      0.580D-04      0.767D-05      -115.72280463    186.930398   -0.54181    0.00000    0.27526    2    diag
    4      0.176D-04      0.778D-05      -115.72280464    186.929045   -0.54170    0.00000    0.27512    3    diag
    5      0.940D-05      0.691D-06      -115.72280464    186.929079   -0.54172    0.00000    0.27513    4    diag
    6      0.777D-06      0.101D-06      -115.72280464    186.929115   -0.54172    0.00000    0.27513    5    diag
    7      0.241D-06      0.490D-07      -115.72280464    186.929106   -0.54172    0.00000    0.27513    6    diag
    8      0.861D-07      0.258D-08      -115.72280464    186.929106   -0.54172    0.00000    0.27513    7    orth
    9      0.513D-08      0.570D-09      -115.72280464    186.929106   -0.54172    0.00000    0.27513    8    diag
   10      0.103D-08      0.104D-09      -115.72280464    186.929106   -0.54172    0.00000    0.27513    9    diag
   11      0.149D-09      0.106D-10      -115.72280464    186.929106   -0.54172    0.00000    0.27513    9    diag
   12      0.167D-10      0.935D-12      -115.72280464    186.929106   -0.54172    0.00000    0.27513    0    orth

 Final occupancy:   7   2

 !RKS STATE 1.1 Energy               -115.722804642177
 Nuclear energy                        40.17707931
 One-electron energy                 -236.81191891
 Two-electron energy                   93.46455275
 SCF exchange energy                  -14.83557505     Factor= 0.2000
 Density functional                   -12.55251780     B88=-14.87515390 DIRAC=-13.41274171 LYP= -0.59558478 VWN3= -1.51033675
 Virial quotient                       -1.00657113
 !RKS STATE 1.1 Dipole moment          -0.54171671     0.00000000     0.27513410
 Dipole moment /Debye                  -1.37681635     0.00000000     0.69927531

 Orbital energies:

         1.1          2.1          3.1          4.1          5.1          6.1          7.1          8.1          9.1
    -19.130279   -10.226924    -1.011205    -0.675271    -0.500261    -0.417583    -0.328236     0.055210     0.092255

         1.2          2.2          3.2          4.2
     -0.431194    -0.264431     0.136614     0.460412

 HOMO      2.2    -0.264431 =      -7.1955eV
 LUMO      8.1     0.055210 =       1.5023eV
 LUMO-HOMO         0.319641 =       8.6979eV


 **********************************************************************************************************************************
 DATASETS  * FILE   NREC   LENGTH (MB)   RECORD NAMES
              1      19       19.18       500      610      700      900      950      970     1000      129      960     1100   
                                          VAR    BASINP    GEOM    SYMINP    ZMAT    AOBASIS   BASIS     P2S    ABASIS      S 
                                         1400     1410     1200     1210     1080     1600     1650     1700     1800   
                                           T        V       H0       H01     AOSYM     SMH    MOLCAS    OPER     GRID   

              2       5        0.46       700     1000      520     1800     2100   
                                         GEOM     BASIS   MCVARS    GRID      RKS  

 PROGRAMS   *        TOTAL       RKS       RKS       INT
 CPU TIMES  *        12.63      0.45      0.33      0.66
 REAL TIME  *        14.52 SEC
 DISK USED  *       170.93 MB      
 SF USED    *         0.01 MB      
 GA USED    *         0.44 MB       (max)       0.44 MB       (current)
 **********************************************************************************************************************************
   4  -115.72280427  -115.72280464    -0.00000038  0.00037360  0.00050202  0.00017749  0.00074475  0.00114624  0.00014328     11.52

 Current geometry (xyz format, in Angstrom)

    6
 RKS-SCF000/CC-PVDZ  ENERGY=-115.72280464
 H         -0.8409886836        0.0000000000       -1.0317737185
 O          0.0641111867        0.0000000000       -0.6900727227
 C         -0.0129839981        0.0000000000        0.7234508409
 H          1.0206753913        0.0000000000        1.1028025017
 H         -0.5213123495       -0.8975683035        1.1309148951
 H         -0.5213123495        0.8975683035        1.1309148951

 **********************************************************************************************************************************

 Current variables
 R1=                  0.96745302 ANGSTROM
 R2=                  1.41562443 ANGSTROM
 A1=                107.56106697 DEGREE
 R3=                  1.10107194 ANGSTROM
 A2=                107.03118768 DEGREE
 R4=                  1.10907778 ANGSTROM
 A3=                107.67974999 DEGREE
 D2=                121.85232315 DEGREE

 **********************************************************************************************************************************
1PROGRAM * ALASKA (Gradient of the energy)     Author: R. Lindh

 Orbitals from record         2100.2

 Number of closed-shell orbitals:  9 (  7  2 )
 Number of occupied orbitals:      9 (  7  2 )

 Number of electrons= 18     Singlet     Space symmetry=1      Wavefunction type: CLOSED          

 Gradient contributions of integration grid neglected (GRIDGRAD=0).

 DFT GRADIENT, EXFAC=     0.200

 RKS GRADIENT FOR STATE 1.1

 Atom          dE/dx               dE/dy               dE/dz

   1         0.000082455         0.000000000        -0.000009791
   2        -0.000113429         0.000000000         0.000184941
   3         0.000039494         0.000000000        -0.000225944
   4         0.000001407         0.000000000         0.000003975
   5        -0.000006662        -0.000036861         0.000012307
   6        -0.000006662         0.000036861         0.000012307

 Nuclear force contribution to virial =        -0.000474956
 Reading points  1 to  5 from record 700.2,  wavefunction type=RKS-SCF000      

 Making model hessian for Z-matrix coordinates
 BFGS update of hessian using  4 points

 Entering Rational Function Geometry Optimization

 Optimization point 5

 Variable                      Last           Current        Next           Gradient       Hessian

 E(RKS-SCF000) / Hartree  -115.72280427  -115.72280464  -115.72280473
 R1 / ANGSTROM               0.96732594     0.96745302     0.96754792    -0.00016007     1.95688516
 R2 / ANGSTROM               1.41523033     1.41562443     1.41596266    -0.00037523     1.44842329
 A1 / DEGREE               107.59111314   107.56106697   107.53551881     0.00000090     0.00006768
 R3 / ANGSTROM               1.10123677     1.10107194     1.10101858     0.00000508     1.64827551
 A2 / DEGREE               107.03766997   107.03118768   107.02640598    -0.00000012     0.00009127
 R4 / ANGSTROM               1.10914309     1.10907778     1.10900375     0.00014138     3.22044414
 A3 / DEGREE               107.66512563   107.67974999   107.69063460    -0.00000072     0.00014877
 D2 / DEGREE               121.88017760   121.85232315   121.84501198    -0.00000054     0.00021364
 Convergence:                0.00000000  (line search)     0.00085357     0.00023988  (total)

 Geometry written to block  6 of record 700


 Recomputing integrals since geometry changed

1PROGRAM * SEWARD (Integral evaluation for generally contracted gaussian basis sets)     Author: Roland Lindh, 1990

 Geometry written to block  6 of record 700

 Orientation using atomic masses  
 Molecule type: Asymmetric top
 Symmetry elements: Y
 Rotational constants:      24.7582978     23.8750067    126.2506608 GHz  (calculated with average atomic masses)

 Point group  Cs  



 ATOMIC COORDINATES

 NR  ATOM    CHARGE       X              Y              Z

   1  H       1.00   -1.589704826    0.000000000   -1.949320987
   2  O       8.00    0.121158477    0.000000000   -1.304343904
   3  C       6.00   -0.024495224    0.000000000    1.367470526
   4  H       1.00    1.928821834    0.000000000    2.084092422
   5  H       1.00   -0.985207648   -1.696076764    2.137126142
   6  H       1.00   -0.985207648    1.696076764    2.137126142

 Bond lengths in Bohr (Angstrom)

 1-2  1.828400579  2-3  2.675781634  3-4  2.080623578  3-5  2.095713367  3-6  2.095713367
     ( 0.967547919)     ( 1.415962662)     ( 1.101018582)     ( 1.109003755)     ( 1.109003755)

 Bond angles

  1-2-3  107.53551881   2-3-4  107.02640598   2-3-5  113.05791495   2-3-6  113.05791495

  4-3-5  107.69063460   4-3-6  107.69063460   5-3-6  108.05667506

 NUCLEAR CHARGE:                   18
 NUMBER OF PRIMITIVE AOS:          82
 NUMBER OF SYMMETRY AOS:           80
 NUMBER OF CONTRACTIONS:           48   (  33A'  +  15A"  )
 NUMBER OF CORE ORBITALS:           2   (   2A'  +   0A"  )
 NUMBER OF VALENCE ORBITALS:       12   (   9A'  +   3A"  )


 NUCLEAR REPULSION ENERGY   40.17243335

 Eigenvalues of metric

         1 0.979E-02 0.177E-01 0.381E-01 0.390E-01 0.504E-01 0.533E-01 0.740E-01 0.103E+00
         2 0.390E-01 0.486E-01 0.128E+00 0.178E+00 0.333E+00 0.481E+00 0.587E+00 0.919E+00


 Contracted 2-electron integrals neglected if value below      1.0D-14
 AO integral compression algorithm  1   Integral accuracy      1.0D-14

     4.456 MB (compressed) written to integral file (100.0%)

     Node minimum: 0.524 MB, node maximum: 0.786 MB


 NUMBER OF SORTED TWO-ELECTRON INTEGRALS:      52362.     BUFFER LENGTH:  32768
 NUMBER OF SEGMENTS:   1  SEGMENT LENGTH:      52362      RECORD LENGTH: 524288

 Memory used in sort:       0.61 MW

 SORT1 READ      451878. AND WROTE       51251. INTEGRALS IN      1 RECORDS. CPU TIME:     0.02 SEC, REAL TIME:     0.03 SEC
 SORT2 READ      361447. AND WROTE      366861. INTEGRALS IN     14 RECORDS. CPU TIME:     0.00 SEC, REAL TIME:     0.00 SEC

 Node minimum:       51877.  Node maximum:       54144. integrals

 OPERATOR DM      FOR CENTER  0  COORDINATES:    0.000000    0.000000    0.000000
 Density functional group B3LYP3=B88+DIRAC+LYP+VWN3
 Functional: B88(Automatically generated (new) B88)                            Gradient terms: 1
 Functional: DIRAC(Automatically generated (new) DIRAC)                        Gradient terms: 0
 Functional: LYP(Automatically generated (new) LYP)                            Gradient terms: 1
 Functional: VWN3(Automatically generated (new) VWN3)                          Gradient terms: 0
 Use grid at  1800.2
 

 Exact exchange will be calculated, factor:  0.2000

 Functional: B88                       Factor:  0.7200
 Functional: DIRAC                     Factor:  0.0800
 Functional: LYP                       Factor:  0.8100
 Functional: VWN3                      Factor:  0.1900
 
 Computed new grid on record 1800.1 in CPU time    0.0
   41913 words reserved for DFT integration

 PROGRAM * RKS-SCF (Restricted closed shell Kohn-Sham)     Authors: W. Meyer, H.-J. Werner, P.J. Knowles, 1993

 NUMBER OF ELECTRONS:       9+    9-
 CONVERGENCE THRESHOLDS:    1.00E-10 (Density)    1.00E-10 (Energy)
 MAX. NUMBER OF ITERATIONS:      300
 INTERPOLATION TYPE:            DIIS
 INTERPOLATION STEPS:              2 (START)      1 (STEP)
 LEVEL SHIFTS:                  0.00 (CLOSED)  0.00 (OPEN) 

 Number of closed-shell orbitals:    9 (   7   2 )


 Use fine grid record 1800.2 for energy threshold  1.0D-06
 Molecular orbitals read from record     2100.2  Type=RKS/CANONICAL (state 1.1)

 Molecular orbital dump at record        2100.2

 ITERATION    DDIFF          GRAD             ENERGY        2-EL.EN.            DIPOLE MOMENTS         DIIS   ORB.
    1      0.000D+00      0.000D+00      -115.72280467    186.921050   -0.54184    0.00000    0.27553    0    start
    2      0.000D+00      0.157D-04      -115.72280474    186.919566   -0.54177    0.00000    0.27580    1    diag
    3      0.439D-04      0.535D-05      -115.72280474    186.921638   -0.54187    0.00000    0.27592    2    diag
    4      0.125D-04      0.557D-05      -115.72280475    186.920502   -0.54180    0.00000    0.27581    3    diag
    5      0.690D-05      0.648D-06      -115.72280475    186.920519   -0.54180    0.00000    0.27583    4    diag
    6      0.811D-06      0.145D-06      -115.72280475    186.920558   -0.54181    0.00000    0.27583    5    diag
    7      0.298D-06      0.330D-07      -115.72280475    186.920554   -0.54181    0.00000    0.27583    6    diag
    8      0.555D-07      0.180D-08      -115.72280475    186.920554   -0.54181    0.00000    0.27583    7    orth
    9      0.369D-08      0.387D-09      -115.72280475    186.920554   -0.54181    0.00000    0.27583    8    diag
   10      0.695D-09      0.592D-10      -115.72280475    186.920554   -0.54181    0.00000    0.27583    9    diag
   11      0.102D-09      0.115D-10      -115.72280475    186.920554   -0.54181    0.00000    0.27583    9    diag
   12      0.162D-10      0.581D-12      -115.72280475    186.920554   -0.54181    0.00000    0.27583    0    orth

 Final occupancy:   7   2

 !RKS STATE 1.1 Energy               -115.722804746120
 Nuclear energy                        40.17243335
 One-electron energy                 -236.80309256
 Two-electron energy                   93.46027678
 SCF exchange energy                  -14.83544245     Factor= 0.2000
 Density functional                   -12.55242231     B88=-14.87504543 DIRAC=-13.41261883 LYP= -0.59557698 VWN3= -1.51033019
 Virial quotient                       -1.00657479
 !RKS STATE 1.1 Dipole moment          -0.54180521     0.00000000     0.27582954
 Dipole moment /Debye                  -1.37704129     0.00000000     0.70104285

 Orbital energies:

         1.1          2.1          3.1          4.1          5.1          6.1          7.1          8.1          9.1
    -19.130278   -10.226925    -1.011088    -0.675274    -0.500182    -0.417539    -0.328286     0.055194     0.092251

         1.2          2.2          3.2          4.2
     -0.431181    -0.264430     0.136604     0.460372

 HOMO      2.2    -0.264430 =      -7.1955eV
 LUMO      8.1     0.055194 =       1.5019eV
 LUMO-HOMO         0.319624 =       8.6974eV


 **********************************************************************************************************************************
 DATASETS  * FILE   NREC   LENGTH (MB)   RECORD NAMES
              1      19       19.18       500      610      700      900      950      970     1000      129      960     1100   
                                          VAR    BASINP    GEOM    SYMINP    ZMAT    AOBASIS   BASIS     P2S    ABASIS      S 
                                         1400     1410     1200     1210     1080     1600     1650     1700     1800   
                                           T        V       H0       H01     AOSYM     SMH    MOLCAS    OPER     GRID   

              2       5        0.46       700     1000      520     1800     2100   
                                         GEOM     BASIS   MCVARS    GRID      RKS  

 PROGRAMS   *        TOTAL       RKS       RKS       INT
 CPU TIMES  *        15.72      0.60      0.33      0.66
 REAL TIME  *        17.66 SEC
 DISK USED  *       170.93 MB      
 SF USED    *         0.01 MB      
 GA USED    *         0.44 MB       (max)       0.44 MB       (current)
 **********************************************************************************************************************************
   5  -115.72280464  -115.72280475    -0.00000010  0.00019856  0.00023988  0.00008481  0.00063916  0.00085357  0.00010670     14.61

 Current geometry (xyz format, in Angstrom)

    6
 RKS-SCF000/CC-PVDZ  ENERGY=-115.72280475
 H         -0.8412355659        0.0000000000       -1.0315362430
 O          0.0641143049        0.0000000000       -0.6902290693
 C         -0.0129623145        0.0000000000        0.7236342392
 H          1.0206885586        0.0000000000        1.1028542150
 H         -0.5213494353       -0.8975251716        1.1309184513
 H         -0.5213494353        0.8975251716        1.1309184513

 **********************************************************************************************************************************

 Current variables
 R1=                  0.96754792 ANGSTROM
 R2=                  1.41596266 ANGSTROM
 A1=                107.53551881 DEGREE
 R3=                  1.10101858 ANGSTROM
 A2=                107.02640598 DEGREE
 R4=                  1.10900375 ANGSTROM
 A3=                107.69063460 DEGREE
 D2=                121.84501198 DEGREE

 **********************************************************************************************************************************

 END OF GEOMETRY OPTIMIZATION.

 Optimized variables
 R1=                  0.96754792 ANGSTROM
 R2=                  1.41596266 ANGSTROM
 A1=                107.53551881 DEGREE
 R3=                  1.10101858 ANGSTROM
 A2=                107.02640598 DEGREE
 R4=                  1.10900375 ANGSTROM
 A3=                107.69063460 DEGREE
 D2=                121.84501198 DEGREE

 **********************************************************************************************************************************

 Current geometry (xyz format, in Angstrom)

    6
 RKS-SCF000/CC-PVDZ  ENERGY=-115.72280475
 H         -0.8412355659        0.0000000000       -1.0315362430
 O          0.0641143049        0.0000000000       -0.6902290693
 C         -0.0129623145        0.0000000000        0.7236342392
 H          1.0206885586        0.0000000000        1.1028542150
 H         -0.5213494353       -0.8975251716        1.1309184513
 H         -0.5213494353        0.8975251716        1.1309184513

 **********************************************************************************************************************************

 Geometry written to block  1 of record 700


 **********************************************************************************************************************************
 DATASETS  * FILE   NREC   LENGTH (MB)   RECORD NAMES
              1      19       19.18       500      610      700      900      950      970     1000      129      960     1100   
                                          VAR    BASINP    GEOM    SYMINP    ZMAT    AOBASIS   BASIS     P2S    ABASIS      S 
                                         1400     1410     1200     1210     1080     1600     1650     1700     1800   
                                           T        V       H0       H01     AOSYM     SMH    MOLCAS    OPER     GRID   

              2       5        0.46       700     1000      520     1800     2100   
                                         GEOM     BASIS   MCVARS    GRID      RKS  

 PROGRAMS   *        TOTAL      OPTG       RKS       INT
 CPU TIMES  *        15.73     14.61      0.33      0.66
 REAL TIME  *        17.66 SEC
 DISK USED  *       170.93 MB      
 SF USED    *         0.01 MB      
 GA USED    *         0.44 MB       (max)       0.44 MB       (current)
 **********************************************************************************************************************************


 PROGRAM * HESSIAN
 Cartesian Coordinates are in [bohr]
 Creating new Variables:
 HX1              -1.58970483
 HY1               0.00000000
 HZ1              -1.94932099
 OX2               0.12115848
 OY2               0.00000000
 OZ2              -1.30434390
 CX3              -0.02449522
 CY3               0.00000000
 CZ3               1.36747053
 HX4               1.92882183
 HY4               0.00000000
 HZ4               2.08409242
 HX5              -0.98520765
 HY5              -1.69607676
 HZ5               2.13712614
 HX6              -0.98520765
 HY6               1.69607676
 HZ6               2.13712614

 Computing numerical hessian using default procedure for command RKS-SCF

 Symmetry elements for unique displacements: Y  

 Using no symmetry in wavefunction calculations

 Running default procedure: RKS-SCF000
 

 Recomputing wavefunction at reference geometry


 Recomputing integrals since symmetry changed


 Using spherical harmonics

 Library entry H      S cc-pVDZ              selected for orbital group  1
 Library entry H      P cc-pVDZ              selected for orbital group  1
 Library entry O      S cc-pVDZ              selected for orbital group  2
 Library entry O      P cc-pVDZ              selected for orbital group  2
 Library entry O      D cc-pVDZ              selected for orbital group  2
 Library entry C      S cc-pVDZ              selected for orbital group  3
 Library entry C      P cc-pVDZ              selected for orbital group  3
 Library entry C      D cc-pVDZ              selected for orbital group  3

1PROGRAM * SEWARD (Integral evaluation for generally contracted gaussian basis sets)     Author: Roland Lindh, 1990

 Geometry written to block  1 of record 702


 Point group  C1  



 ATOMIC COORDINATES

 NR  ATOM    CHARGE       X              Y              Z

   1  H       1.00   -1.589704826    0.000000000   -1.949320987
   2  O       8.00    0.121158477    0.000000000   -1.304343904
   3  C       6.00   -0.024495224    0.000000000    1.367470526
   4  H       1.00    1.928821834    0.000000000    2.084092422
   5  H       1.00   -0.985207648   -1.696076764    2.137126142
   6  H       1.00   -0.985207648    1.696076764    2.137126142

 Bond lengths in Bohr (Angstrom)

 1-2  1.828400579  2-3  2.675781634  3-4  2.080623578  3-5  2.095713367  3-6  2.095713367
     ( 0.967547919)     ( 1.415962662)     ( 1.101018582)     ( 1.109003755)     ( 1.109003755)

 Bond angles

  1-2-3  107.53551881   2-3-4  107.02640598   2-3-5  113.05791495   2-3-6  113.05791495

  4-3-5  107.69063460   4-3-6  107.69063460   5-3-6  108.05667506

 NUCLEAR CHARGE:                   18
 NUMBER OF PRIMITIVE AOS:          82
 NUMBER OF SYMMETRY AOS:           80
 NUMBER OF CONTRACTIONS:           48   (  48A   )
 NUMBER OF CORE ORBITALS:           2   (   2A   )
 NUMBER OF VALENCE ORBITALS:       12   (  12A   )

 SYMMETRY CHANGED: INITIALIZING OCCUPATION


 NUCLEAR REPULSION ENERGY   40.17243335


 Eigenvalues of metric

         1 0.979E-02 0.177E-01 0.381E-01 0.390E-01 0.390E-01 0.486E-01 0.504E-01 0.533E-01


 Contracted 2-electron integrals neglected if value below      1.0D-14
 AO integral compression algorithm  1   Integral accuracy      1.0D-14

     6.554 MB (compressed) written to integral file ( 88.4%)

     Node minimum: 0.786 MB, node maximum: 1.049 MB


 NUMBER OF SORTED TWO-ELECTRON INTEGRALS:      99372.     BUFFER LENGTH:  32768
 NUMBER OF SEGMENTS:   1  SEGMENT LENGTH:      99372      RECORD LENGTH: 524288

 Memory used in sort:       0.66 MW

 SORT1 READ      839336. AND WROTE       80967. INTEGRALS IN      1 RECORDS. CPU TIME:     0.03 SEC, REAL TIME:     0.03 SEC
[...]
                  17            18
         1    -0.0175107     0.9032209
         2    -0.0000000     0.0000000
         3     0.0011637     0.3539209
         4     0.0070874    -0.2228148
         5    -0.0000000    -0.0000000
         6     0.0003080    -0.0943372
         7    -0.2901280    -0.0095695
         8     0.0000000     0.0000000
         9    -0.0589240     0.0037412
        10     0.8774760     0.0157745
        11     0.0000000    -0.0000000
        12     0.3065971     0.0020832
        13     0.0566613     0.0008818
        14     0.1342288     0.0009017
        15    -0.0527907     0.0034669
        16     0.0566613     0.0008818
        17    -0.1342288    -0.0009017
        18    -0.0527907     0.0034669

   Low Vibration      Wavenumber
        Nr             [1/cm] 
        1                0.00
        2                0.00
        3                0.00
        4                0.00
        5                0.00
        6                0.00

     Vibration        Wavenumber
        Nr             [1/cm] 
        1              334.63
        2             1060.26
        3             1090.08
        4             1154.87
        5             1377.22
        6             1465.63
        7             1466.99
        8             1484.86
        9             2964.82
       10             3008.85
       11             3102.02
       12             3780.43

 FREQUENCIES * CALCULATION OF NORMAL MODES FOR RKS-SCF


 Atomic Coordinates

  Nr  Atom  Charge       X              Y              Z

   1   H     1.00   -1.589704826    0.000000000   -1.949320987
   2   O     8.00    0.121158477    0.000000000   -1.304343904
   3   C     6.00   -0.024495224    0.000000000    1.367470526
   4   H     1.00    1.928821834    0.000000000    2.084092422
   5   H     1.00   -0.985207648   -1.696076764    2.137126142
   6   H     1.00   -0.985207648    1.696076764    2.137126142

 Frequencies dumped to record   5400.2

 Gradient norm at reference geometry: 0.43178D-03

 Normal Modes

                              1 A``       2 A`        3 A`        4 A``       5 A` 
 Wavenumbers [cm-1]          334.63     1060.26     1090.08     1154.87     1377.22
 Intensities [km/mol]        110.77      103.38       12.93        0.67       27.01
 Intensities [relative]      100.00       93.33       11.67        0.60       24.38
           HX1              0.00000    -0.21076     0.09707    -0.00000    -0.21242
           HY1              0.85550     0.00000    -0.00000     0.00596    -0.00000
           HZ1             -0.00000     0.41699    -0.35947     0.00000     0.68878
           OX2             -0.00000     0.00142     0.01513     0.00000     0.06977
           OY2             -0.06197    -0.00000     0.00000     0.05478     0.00000
           OZ2             -0.00000    -0.12254    -0.12240    -0.00000    -0.01756
           CX3             -0.00000     0.05351    -0.05656    -0.00000    -0.10962
           CY3              0.00396     0.00000     0.00000    -0.12353     0.00000
           CZ3             -0.00000     0.10976     0.16149     0.00000    -0.02198
           HX4             -0.00000    -0.09387     0.07877     0.00000     0.00075
           HY4              0.28378    -0.00000    -0.00000     0.25322    -0.00000
           HZ4             -0.00000     0.49600    -0.21456     0.00000    -0.32997
           HX5              0.21611    -0.17783     0.12897    -0.08318     0.20523
           HY5             -0.10143     0.02885    -0.03213     0.17165    -0.12617
           HZ5              0.04785    -0.13785     0.29629     0.55934     0.09091
           HX6             -0.21611    -0.17783     0.12897     0.08318     0.20523
           HY6             -0.10143    -0.02885     0.03213     0.17165     0.12617
           HZ6             -0.04785    -0.13785     0.29629    -0.55934     0.09091

                              6 A``       7 A`        8 A`        9 A`       10 A``
 Wavenumbers [cm-1]         1465.63     1466.99     1484.86     2964.82     3008.85
 Intensities [km/mol]          1.71        8.03        4.12       66.75       85.66
 Intensities [relative]        1.55        7.25        3.72       60.26       77.34
           HX1             -0.00000     0.00086    -0.04457     0.00234    -0.00000
           HY1             -0.00730    -0.00000    -0.00000     0.00000     0.00472
           HZ1              0.00000    -0.02864     0.15763     0.00375     0.00000
           OX2              0.00000    -0.00588     0.02340     0.00015    -0.00000
           OY2             -0.00929    -0.00000     0.00000     0.00000     0.00041
           OZ2              0.00000    -0.01177    -0.00951     0.00258    -0.00000
           CX3              0.00000    -0.01801     0.03025    -0.03125     0.00000
           CY3             -0.05562    -0.00000     0.00000    -0.00000    -0.08935
           CZ3              0.00000    -0.09566    -0.04793     0.04115    -0.00000
           HX4              0.00000    -0.25578     0.06415    -0.23399     0.00000
           HY4              0.70409     0.00000    -0.00000    -0.00000    -0.02597
           HZ4             -0.00000     0.61107    -0.19418    -0.07991     0.00000
           HX5             -0.37032     0.28141    -0.37574     0.30083     0.32258
           HY5              0.05676     0.02690     0.39043     0.55430     0.53974
           HZ5             -0.29780     0.37214     0.37936    -0.22755    -0.22970
           HX6              0.37032     0.28141    -0.37574     0.30083    -0.32258
           HY6              0.05676    -0.02690    -0.39043    -0.55430     0.53974
           HZ6              0.29780     0.37214     0.37936    -0.22755     0.22970

                             11 A`       12 A` 
 Wavenumbers [cm-1]         3102.02     3780.43
 Intensities [km/mol]         33.22       19.44
 Intensities [relative]       29.99       17.55
           HX1             -0.01744     0.89966
           HY1             -0.00000     0.00000
           HZ1              0.00116     0.35252
           OX2              0.00177    -0.05570
           OY2             -0.00000    -0.00000
           OZ2              0.00008    -0.02358
           CX3             -0.08371    -0.00276
           CY3              0.00000     0.00000
           CZ3             -0.01700     0.00108
           HX4              0.87401     0.01571
           HY4              0.00000    -0.00000
           HZ4              0.30539     0.00207
           HX5              0.05644     0.00088
           HY5              0.13370     0.00090
           HZ5             -0.05258     0.00345
           HX6              0.05644     0.00088
           HY6             -0.13370    -0.00090
           HZ6             -0.05258     0.00345


 Normal Modes of low/zero frequencies

                                  1           2           3           4           5
 Wavenumbers [cm-1]            0.00        0.00        0.00        0.00        0.00
 Intensities [km/mol]          0.00        0.00        0.00        0.00        0.00
 Intensities [relative]        0.00        0.00        0.00        0.00        0.00
           HX1              0.28467    -0.01486    -0.00351     0.00271    -0.00189
           HY1             -0.00232    -0.34779     0.06214     0.10837    -0.09470
           HZ1             -0.13082     0.09121    -0.02329    -0.06495     0.11082
           OX2              0.22958     0.01833     0.00348    -0.00709    -0.01789
           OY2              0.00229    -0.00392     0.01768     0.21792     0.02327
           OZ2              0.01530     0.00319    -0.04183    -0.03895     0.15324
           CX3              0.00139     0.15579     0.03244    -0.04770    -0.08414
           CY3              0.00291     0.01332     0.22584     0.01156     0.07225
           CZ3              0.00286     0.01068    -0.04025    -0.04116     0.14963
           HX4             -0.05982     0.19265     0.04021    -0.05859    -0.10191
           HY4              0.00816     0.40558     0.17360     0.13807     0.20651
           HZ4              0.16969    -0.08981    -0.06142    -0.01147     0.19807
           HX5             -0.06002     0.52537    -0.05122     0.09541    -0.00012
           HY5              0.00074    -0.16047     0.33563    -0.13174     0.03051
           HZ5             -0.07857     0.08904     0.09729    -0.17832     0.16253
           HX6             -0.06868    -0.13461     0.13278    -0.21420    -0.20634
           HY6              0.00074    -0.16047     0.33563    -0.13174     0.03051
           HZ6             -0.07982     0.03118    -0.15696     0.06679     0.08909

                                  6
 Wavenumbers [cm-1]            0.00
 Intensities [km/mol]          0.00
 Intensities [relative]        0.00
           HX1             -0.01407
           HY1              0.33851
           HZ1              0.14888
           OX2              0.01703
           OY2              0.08493
           OZ2              0.06640
           CX3              0.14584
           CY3             -0.01902
           CZ3              0.07342
           HX4              0.18039
           HY4             -0.30764
           HZ4             -0.02075
           HX5             -0.03902
           HY5              0.07127
           HZ5              0.04165
           HX6              0.40490
           HY6              0.07127
           HZ6              0.19782


 Zero point energy:  0.05078187 [H]    11145.33 [1/CM]      133.33 [KJ/MOL]

 Recomputing wavefunction at initial geometry


 Recomputing integrals since geometry changed

1PROGRAM * SEWARD (Integral evaluation for generally contracted gaussian basis sets)     Author: Roland Lindh, 1990

 Geometry written to block  1 of record 703

 Orientation using atomic masses  
 Molecule type: Asymmetric top
 Rotational constants:      24.7582978     23.8750067    126.2506608 GHz  (calculated with average atomic masses)

 Point group  C1  



 ATOMIC COORDINATES

 NR  ATOM    CHARGE       X              Y              Z

   1  H       1.00   -1.589704826   -0.000000000   -1.949320987
   2  O       8.00    0.121158477   -0.000000000   -1.304343904
   3  C       6.00   -0.024495224   -0.000000000    1.367470526
   4  H       1.00    1.928821834    0.000000000    2.084092422
   5  H       1.00   -0.985207648   -1.696076764    2.137126142
   6  H       1.00   -0.985207648    1.696076764    2.137126142

 Bond lengths in Bohr (Angstrom)

 1-2  1.828400579  2-3  2.675781634  3-4  2.080623578  3-5  2.095713367  3-6  2.095713367
     ( 0.967547919)     ( 1.415962662)     ( 1.101018582)     ( 1.109003755)     ( 1.109003755)

 Bond angles

  1-2-3  107.53551881   2-3-4  107.02640598   2-3-5  113.05791495   2-3-6  113.05791495

  4-3-5  107.69063460   4-3-6  107.69063460   5-3-6  108.05667506

 NUCLEAR CHARGE:                   18
 NUMBER OF PRIMITIVE AOS:          82
 NUMBER OF SYMMETRY AOS:           80
 NUMBER OF CONTRACTIONS:           48   (  48A   )
 NUMBER OF CORE ORBITALS:           2   (   2A   )
 NUMBER OF VALENCE ORBITALS:       12   (  12A   )

 SYMMETRY CHANGED: INITIALIZING OCCUPATION


 NUCLEAR REPULSION ENERGY   40.17243335


 Eigenvalues of metric

         1 0.979E-02 0.177E-01 0.381E-01 0.390E-01 0.390E-01 0.486E-01 0.504E-01 0.533E-01


 Contracted 2-electron integrals neglected if value below      1.0D-14
 AO integral compression algorithm  1   Integral accuracy      1.0D-14

     6.291 MB (compressed) written to integral file ( 92.3%)

     Node minimum: 0.786 MB, node maximum: 1.049 MB


 NUMBER OF SORTED TWO-ELECTRON INTEGRALS:      99372.     BUFFER LENGTH:  32768
 NUMBER OF SEGMENTS:   1  SEGMENT LENGTH:      99372      RECORD LENGTH: 524288

 Memory used in sort:       0.66 MW

 SORT1 READ      839336. AND WROTE       80967. INTEGRALS IN      1 RECORDS. CPU TIME:     0.03 SEC, REAL TIME:     0.03 SEC
 SORT2 READ      555544. AND WROTE      692076. INTEGRALS IN     21 RECORDS. CPU TIME:     0.00 SEC, REAL TIME:     0.00 SEC

 Node minimum:       98364.  Node maximum:       99372. integrals

 OPERATOR DM      FOR CENTER  0  COORDINATES:    0.000000    0.000000    0.000000
 Density functional group B3LYP3=B88+DIRAC+LYP+VWN3
 Functional: B88(Automatically generated (new) B88)                            Gradient terms: 1
 Functional: DIRAC(Automatically generated (new) DIRAC)                        Gradient terms: 0
 Functional: LYP(Automatically generated (new) LYP)                            Gradient terms: 1
 Functional: VWN3(Automatically generated (new) VWN3)                          Gradient terms: 0
 Use grid at  1800.2
 

 Exact exchange will be calculated, factor:  0.2000

 Functional: B88                       Factor:  0.7200
 Functional: DIRAC                     Factor:  0.0800
 Functional: LYP                       Factor:  0.8100
 Functional: VWN3                      Factor:  0.1900
 
 Warning: extending grid record  1800.2 from   447 to   513 words
 Generated new metagrid on record  1800.2 with target accuracy 1.0D-06 and 22048 points in CPU time    0.1
 Computed new grid on record 1800.1 in CPU time    0.1
   42186 words reserved for DFT integration

 PROGRAM * RKS-SCF (Restricted closed shell Kohn-Sham)     Authors: W. Meyer, H.-J. Werner, P.J. Knowles, 1993

 NUMBER OF ELECTRONS:       9+    9-    SPACE SYMMETRY=1    SPIN SYMMETRY: Singlet 
 CONVERGENCE THRESHOLDS:    1.00E-10 (Density)    1.00E-10 (Energy)
 MAX. NUMBER OF ITERATIONS:      300
 INTERPOLATION TYPE:            DIIS
 INTERPOLATION STEPS:              2 (START)      1 (STEP)
 LEVEL SHIFTS:                  0.00 (CLOSED)  0.00 (OPEN) 



 Use fine grid record 1800.2 for energy threshold  1.0D-06
 Molecular orbitals read from record     2100.2  Type=RKS/CANONICAL (state 1.1)
 
 Present basis size:      48
 Previous basis size:     33  15
 Previous occupation:      7   2
 Previous closed-shells:   7   2
 Previous core-orbitals:   2   0
 Present occupation:       9
 Present closed-shells:    9
 Present core-orbitals:    2
 Wavefunction symmetry:    1   Singlet 

 Orbital overlap <old|new>:  < 1.1| 1.1> = 1.000000   < 2.1| 2.1> = 1.000000   < 3.1| 3.1> = 1.000000   < 4.1| 4.1> = 1.000000
                             < 5.1| 5.1> = 1.000000   < 6.1| 6.1> = 1.000000   < 7.1| 7.1> = 1.000000   < 1.2| 8.1> = 1.000000
                             < 2.2| 9.1> = 1.000000

 Molecular orbital dump at record        2101.2

 ITERATION    DDIFF          GRAD             ENERGY        2-EL.EN.            DIPOLE MOMENTS         DIIS   ORB.
    1      0.000D+00      0.000D+00      -115.72280475    186.920554   -0.54181    0.00000    0.27583    0    start
    2      0.000D+00      0.555D-12      -115.72280475    186.920554   -0.54181    0.00000    0.27583    0    orth

 Final occupancy:   9

 !RKS STATE 1.1 Energy               -115.722804746131
 Nuclear energy                        40.17243335
 One-electron energy                 -236.80309256
 Two-electron energy                   93.46027678
 SCF exchange energy                  -14.83544245     Factor= 0.2000
 Density functional                   -12.55242231     B88=-14.87504543 DIRAC=-13.41261883 LYP= -0.59557698 VWN3= -1.51033019
 Virial quotient                       -1.00657479
 !RKS STATE 1.1 Dipole moment          -0.54180521     0.00000000     0.27582954
 Dipole moment /Debye                  -1.37704129     0.00000000     0.70104285

 Orbital energies:

         1.1          2.1          3.1          4.1          5.1          6.1          7.1          8.1          9.1         10.1
    -19.130278   -10.226925    -1.011088    -0.675274    -0.500182    -0.431181    -0.417539    -0.328286    -0.264430     0.055194

        11.1
      0.092251

 HOMO      9.1    -0.264430 =      -7.1955eV
 LUMO     10.1     0.055194 =       1.5019eV
 LUMO-HOMO         0.319624 =       8.6974eV


 **********************************************************************************************************************************
 DATASETS  * FILE   NREC   LENGTH (MB)   RECORD NAMES
              1      21       19.73       500      610      700      702      900      703      950      970     1001      129   
                                          VAR    BASINP    GEOM     GEOM    SYMINP    GEOM     ZMAT    AOBASIS   BASIS     P2S  
                                          960     1100     1400     1410     1200     1210     1080     1600     1650     1700   
                                        ABASIS      S        T        V       H0       H01     AOSYM     SMH    MOLCAS    OPER   
                                         1800   
                                         GRID   

              2      14        1.28       700     1000      520     1800     2100      701      702     1001     1800(1)  2101   
                                         GEOM     BASIS   MCVARS    GRID      RKS     GEOM     GEOM     BASIS    GRID      RKS  
                                         5300     5400     5450      703   
                                         HESS     FREQ     NMOD     GEOM   

 PROGRAMS   *        TOTAL       RKS       RKS       RKS       RKS       RKS       RKS       RKS       RKS       RKS       RKS
 CPU TIMES  *       104.97      0.46      0.54      0.54      0.54      0.54      0.52      0.46      0.52      0.53      0.53
 REAL TIME  *       108.82 SEC
 DISK USED  *       182.82 MB      
 SF USED    *         0.01 MB      
 GA USED    *         0.77 MB       (max)       0.77 MB       (current)
 **********************************************************************************************************************************


 **********************************************************************************************************************************
 DATASETS  * FILE   NREC   LENGTH (MB)   RECORD NAMES
              1      21       19.73       500      610      700      702      900      703      950      970     1001      129   
                                          VAR    BASINP    GEOM     GEOM    SYMINP    GEOM     ZMAT    AOBASIS   BASIS     P2S  
                                          960     1100     1400     1410     1200     1210     1080     1600     1650     1700   
                                        ABASIS      S        T        V       H0       H01     AOSYM     SMH    MOLCAS    OPER   
                                         1800   
                                         GRID   

              2      14        1.28       700     1000      520     1800     2100      701      702     1001     1800(1)  2101   
                                         GEOM     BASIS   MCVARS    GRID      RKS     GEOM     GEOM     BASIS    GRID      RKS  
                                         5300     5400     5450      703   
                                         HESS     FREQ     NMOD     GEOM   

 PROGRAMS   *        TOTAL      FREQ       RKS       RKS       RKS       RKS       RKS       RKS       RKS       RKS       RKS
 CPU TIMES  *       104.97      0.46      0.54      0.54      0.54      0.54      0.52      0.46      0.52      0.53      0.53
 REAL TIME  *       108.82 SEC
 DISK USED  *       182.82 MB      
 SF USED    *         0.01 MB      
 GA USED    *         0.77 MB       (max)       0.77 MB       (current)
 **********************************************************************************************************************************

 RB3LYP3/cc-pVDZ energy=   -115.722804746131

        RKS-SCF         RKS-SCF         RKS-SCF         RKS-SCF         RKS-SCF         RKS-SCF         RKS-SCF         RKS-SCF 
   -115.72280475   -115.72280029   -115.72280027   -115.72279343   -115.72279328   -115.72279964   -115.72279950   -115.72280023
 **********************************************************************************************************************************
 Variable memory released
