
 Primary working directories    : /scratch/kmoore
 Secondary working directories  : /scratch/kmoore
 Wavefunction directory         : /scratch/kmoore/
 Main file repository           : /scratch/kmoore/

 SHA1      : b6b3a4772808bb2d43777f23454e145ddfe12dc3
 NAME      : 2015.1.1
 ARCHNAME  : linux/x86_64
 FC        : /soft/mvapich2/2.2b_psm/intel-15.0/bin/mpif90
 BLASLIB   : -L/soft/intel/15.0.1/composer_xe_2015.0.090/mkl/lib/intel64 -lmkl_intel_ilp64 -lmkl_sequential -lmkl_core
 id        : anlgov

 Nodes     nprocs
 b450         1

 Using customized tuning parameters: mindgm=1; mindgv=20; mindgc=4; mindgr=1; noblas=0; minvec=7
 default implementation of scratch files=df  

 memory,850,m
 gthresh,energy=1.0d-10,orbital=1.0d-10,oneint=1.d-12,twoint=1.d-14
 
 nosym
 angstrom
 Geometry = {
 H        0.000000    0.000000    0.000000
 O        0.000000    0.000000    0.992000
 C        1.343844    0.000000    1.377341
 H        1.399951   -0.000000    2.484921
 H        1.852185    0.915763    1.003828
 H        1.852185   -0.915763    1.003828
 }
 
 basis=cc-pVDZ
 {rks,b3lyp3,maxit=300}
 
 FORCE

 Variables initialized (889), CPU time= 0.01 sec
 Commands  initialized (702), CPU time= 0.01 sec, 572 directives.
 Default parameters read. Elapsed time= 0.05 sec

 Checking input...
 Passed
1


                                         ***  PROGRAM SYSTEM MOLPRO  ***
                                       Copyright, TTI GmbH Stuttgart, 2015
                                    Version 2015.1 linked Jan  8 2016 07:59:11


 **********************************************************************************************************************************
 LABEL *                                                                                 
  64 bit serial version                                                                  DATE: 29-Jan-19          TIME: 11:31:56  
 **********************************************************************************************************************************

 SHA1:             b6b3a4772808bb2d43777f23454e145ddfe12dc3
 **********************************************************************************************************************************

 THRESHOLDS:

 ZERO    =  1.00D-12  ONEINT  =  1.00D-12  TWOINT  =  1.00D-14  PREFAC  =  1.00D-14  LOCALI  =  1.00D-09  EORDER  =  1.00D-04
 ENERGY  =  1.00D-10  ETEST   =  0.00D+00  EDENS   =  0.00D+00  THRDEDEF=  1.00D-06  GRADIENT=  1.00D-02  STEP    =  1.00D-03
 ORBITAL =  1.00D-10  CIVEC   =  1.00D-05  COEFF   =  1.00D-04  PRINTCI =  5.00D-02  PUNCHCI =  9.90D+01  OPTGRAD =  3.00D-04
 OPTENERG=  1.00D-06  OPTSTEP =  3.00D-04  THRGRAD =  1.00D-10  COMPRESS=  1.00D-11  VARMIN  =  1.00D-07  VARMAX  =  1.00D-03
 THRDOUB =  0.00D+00  THRDIV  =  1.00D-05  THRRED  =  1.00D-07  THRPSP  =  1.00D+00  THRDC   =  1.00D-10  THRCS   =  1.00D-10
 THRNRM  =  1.00D-08  THREQ   =  0.00D+00  THRDE   =  1.00D+00  THRREF  =  1.00D-05  SPARFAC =  1.00D+00  THRDLP  =  1.00D-07
 THRDIA  =  1.00D-10  THRDLS  =  1.00D-07  THRGPS  =  0.00D+00  THRKEX  =  0.00D+00  THRDIS  =  2.00D-01  THRVAR  =  1.00D-10
 THRLOC  =  1.00D-06  THRGAP  =  1.00D-06  THRLOCT = -1.00D+00  THRGAPT = -1.00D+00  THRORB  =  1.00D-06  THRMLTP =  0.00D+00
 THRCPQCI=  1.00D-10  KEXTA   =  0.00D+00  THRCOARS=  0.00D+00  SYMTOL  =  1.00D-06  GRADTOL =  1.00D-06  THROVL  =  1.00D-08
 THRORTH =  1.00D-08  GRID    =  1.00D-06  GRIDMAX =  1.00D-03  DTMAX   =  0.00D+00  THROCCDE=  1.00D-01  THROCCDE=  1.00D-01



 Variable memory set to  850000000 words,  buffer space   230000 words

 ZSYMEL=NOSYM
 ZUNIT=ANG
 

Geometry recognized as XYZ

 SETTING BASIS          =    CC-PVDZ


 Recomputing integrals since basis changed


 Using spherical harmonics

 Library entry H      S cc-pVDZ              selected for orbital group  1
 Library entry H      P cc-pVDZ              selected for orbital group  1
 Library entry O      S cc-pVDZ              selected for orbital group  2
 Library entry O      P cc-pVDZ              selected for orbital group  2
 Library entry O      D cc-pVDZ              selected for orbital group  2
 Library entry C      S cc-pVDZ              selected for orbital group  3
 Library entry C      P cc-pVDZ              selected for orbital group  3
 Library entry C      D cc-pVDZ              selected for orbital group  3

1PROGRAM * SEWARD (Integral evaluation for generally contracted gaussian basis sets)     Author: Roland Lindh, 1990

 Geometry written to block  1 of record 700


 Point group  C1  



 ATOMIC COORDINATES

 NR  ATOM    CHARGE       X              Y              Z

   1  H       1.00    0.000000000    0.000000000    0.000000000
   2  O       8.00    0.000000000    0.000000000    1.874608316
   3  C       6.00    2.539497114    0.000000000    2.602797270
   4  H       1.00    2.645523978    0.000000000    4.695820131
   5  H       1.00    3.500122382    1.730541265    1.896959996
   6  H       1.00    3.500122382   -1.730541265    1.896959996

 Bond lengths in Bohr (Angstrom)

 1-2  1.874608316  2-3  2.641837381  3-4  2.095706657  3-5  2.101375795  3-6  2.101375795
     ( 0.992000000)     ( 1.398000137)     ( 1.109000204)     ( 1.112000182)     ( 1.112000182)

 Bond angles

  1-2-3  105.99999739   2-3-4  108.89996734   2-3-5  110.29462235   2-3-6  110.29462235

  4-3-5  108.19999931   4-3-6  108.19999931   5-3-6  110.87901927

 NUCLEAR CHARGE:                   18
 NUMBER OF PRIMITIVE AOS:          82
 NUMBER OF SYMMETRY AOS:           80
 NUMBER OF CONTRACTIONS:           48   (  48A   )
 NUMBER OF CORE ORBITALS:           2   (   2A   )
 NUMBER OF VALENCE ORBITALS:       12   (  12A   )


 NUCLEAR REPULSION ENERGY   40.34988720


 Eigenvalues of metric

         1 0.966E-02 0.178E-01 0.388E-01 0.397E-01 0.411E-01 0.480E-01 0.504E-01 0.544E-01


 Contracted 2-electron integrals neglected if value below      1.0D-14
 AO integral compression algorithm  1   Integral accuracy      1.0D-14

     5.505 MB (compressed) written to integral file ( 79.8%)


 NUMBER OF SORTED TWO-ELECTRON INTEGRALS:     692076.     BUFFER LENGTH:  32768
 NUMBER OF SEGMENTS:   1  SEGMENT LENGTH:     692076      RECORD LENGTH: 524288

 Memory used in sort:       1.25 MW

 SORT1 READ      839336. AND WROTE      552156. INTEGRALS IN      2 RECORDS. CPU TIME:     0.01 SEC, REAL TIME:     0.01 SEC
 SORT2 READ      552156. AND WROTE      692076. INTEGRALS IN     21 RECORDS. CPU TIME:     0.03 SEC, REAL TIME:     0.04 SEC

 FILE SIZES:   FILE 1:    24.7 MBYTE,  FILE 4:     8.4 MBYTE,   TOTAL:     33.2 MBYTE

 OPERATOR DM      FOR CENTER  0  COORDINATES:    0.000000    0.000000    0.000000


 **********************************************************************************************************************************
 DATASETS  * FILE   NREC   LENGTH (MB)   RECORD NAMES
              1      19       23.71       500      610      700      900      950      970     1000      129      960     1100   
                                          VAR    BASINP    GEOM    SYMINP    ZMAT    AOBASIS   BASIS     P2S    ABASIS      S 
                                         1400     1410     1200     1210     1080     1600     1650     1300     1700   
                                           T        V       H0       H01     AOSYM     SMH    MOLCAS    ERIS     OPER   

 PROGRAMS   *        TOTAL       INT
 CPU TIMES  *         0.38      0.27
 REAL TIME  *         0.84 SEC
 DISK USED  *        33.53 MB      
 **********************************************************************************************************************************

 Density functional group B3LYP3=B88+DIRAC+LYP+VWN3
 Functional: B88(Automatically generated (new) B88)                            Gradient terms: 1
 Functional: DIRAC(Automatically generated (new) DIRAC)                        Gradient terms: 0
 Functional: LYP(Automatically generated (new) LYP)                            Gradient terms: 1
 Functional: VWN3(Automatically generated (new) VWN3)                          Gradient terms: 0
 Use grid at  1800.2
 

 Exact exchange will be calculated, factor:  0.2000

 Functional: B88                       Factor:  0.7200
 Functional: DIRAC                     Factor:  0.0800
 Functional: LYP                       Factor:  0.8100
 Functional: VWN3                      Factor:  0.1900
 
 Generated new metagrid on record  1800.2 with target accuracy 1.0D-06 and 21032 points in CPU time    0.1
 Computed new grid on record 1800.1 in CPU time    0.1
   42186 words reserved for DFT integration

 PROGRAM * RKS-SCF (Restricted closed shell Kohn-Sham)     Authors: W. Meyer, H.-J. Werner, P.J. Knowles, 1993

 NUMBER OF ELECTRONS:       9+    9-    SPACE SYMMETRY=1    SPIN SYMMETRY: Singlet 
 CONVERGENCE THRESHOLDS:    1.00E-10 (Density)    1.00E-10 (Energy)
 MAX. NUMBER OF ITERATIONS:      300
 INTERPOLATION TYPE:            DIIS
 INTERPOLATION STEPS:              2 (START)      1 (STEP)
 LEVEL SHIFTS:                  0.00 (CLOSED)  0.00 (OPEN) 



 Use fine grid record 1800.2 for energy threshold  1.0D-06
 Orbital guess generated from atomic densities. Full valence occupancy:   14

 Molecular orbital dump at record        2100.2

 Initial occupancy:   9

 ITERATION    DDIFF          GRAD             ENERGY        2-EL.EN.            DIPOLE MOMENTS         DIIS   ORB.
    1      0.000D+00      0.000D+00      -115.65276012    192.619504    0.73751    0.00000   -0.71144    0    start
    2      0.000D+00      0.146D-01      -115.60693549    180.434963   -0.03784    0.00000   -0.08555    1    diag
    3      0.478D-01      0.200D-01      -115.72024275    187.295312    0.46624    0.00000   -0.42114    2    diag
    4      0.259D-01      0.167D-02      -115.72097082    187.331546    0.42563    0.00000   -0.42717    3    diag
    5      0.309D-02      0.642D-03      -115.72109161    187.277097    0.43228    0.00000   -0.42764    4    diag
    6      0.962D-03      0.843D-04      -115.72109377    187.294249    0.43260    0.00000   -0.42687    5    diag
    7      0.122D-03      0.626D-05      -115.72109378    187.295651    0.43273    0.00000   -0.42729    6    diag
    8      0.107D-04      0.114D-05      -115.72109378    187.295838    0.43273    0.00000   -0.42720    7    diag
    9      0.221D-05      0.164D-06      -115.72109378    187.295820    0.43273    0.00000   -0.42721    8    diag
   10      0.236D-06      0.235D-07      -115.72109378    187.295819    0.43273    0.00000   -0.42721    9    orth
   11      0.374D-07      0.214D-08      -115.72109378    187.295819    0.43273    0.00000   -0.42721    9    diag
   12      0.358D-08      0.347D-09      -115.72109378    187.295819    0.43273    0.00000   -0.42721    9    diag
   13      0.482D-09      0.279D-10      -115.72109378    187.295819    0.43273    0.00000   -0.42721    9    diag
   14      0.670D-10      0.539D-11      -115.72109378    187.295819    0.43273    0.00000   -0.42721    0    orth

 Final occupancy:   9

 !RKS STATE 1.1 Energy               -115.721093780526
 Nuclear energy                        40.34988720
 One-electron energy                 -237.17013187
 Two-electron energy                   93.64790950
 SCF exchange energy                  -14.83018834     Factor= 0.2000
 Density functional                   -12.54875861     B88=-14.87037513 DIRAC=-13.40890731 LYP= -0.59562953 VWN3= -1.51008426
 Virial quotient                       -1.00665418
 !RKS STATE 1.1 Dipole moment           0.43272883     0.00000000    -0.42720918
 Dipole moment /Debye                   1.09981494     0.00000000    -1.08578631

 Orbital energies:

         1.1          2.1          3.1          4.1          5.1          6.1          7.1          8.1          9.1         10.1
    -19.130066   -10.226836    -1.012701    -0.669288    -0.497107    -0.436926    -0.419893    -0.324689    -0.261242     0.049514

        11.1
      0.092723

 HOMO      9.1    -0.261242 =      -7.1088eV
 LUMO     10.1     0.049514 =       1.3474eV
 LUMO-HOMO         0.310756 =       8.4561eV


 **********************************************************************************************************************************
 DATASETS  * FILE   NREC   LENGTH (MB)   RECORD NAMES
              1      20       24.38       500      610      700      900      950      970     1000      129      960     1100   
                                          VAR    BASINP    GEOM    SYMINP    ZMAT    AOBASIS   BASIS     P2S    ABASIS      S 
                                         1400     1410     1200     1210     1080     1600     1650     1300     1700     1800   
                                           T        V       H0       H01     AOSYM     SMH    MOLCAS    ERIS     OPER     GRID   

              2       5        0.50       700     1000      520     1800     2100   
                                         GEOM     BASIS   MCVARS    GRID      RKS  

 PROGRAMS   *        TOTAL       RKS       INT
 CPU TIMES  *         1.30      0.91      0.27
 REAL TIME  *         1.76 SEC
 DISK USED  *        33.53 MB      
 **********************************************************************************************************************************

1PROGRAM * ALASKA (Gradient of the energy)     Author: R. Lindh

 Orbitals from record         2100.2

 Number of closed-shell orbitals:  9 (  9 )
 Number of occupied orbitals:      9 (  9 )

 Number of electrons= 18     Singlet     Space symmetry=1      Wavefunction type: CLOSED          

 Gradient contributions of integration grid neglected (GRIDGRAD=0).
 Computed new grid on record 1800.1 in CPU time    0.0

 DFT GRADIENT, EXFAC=     0.200

 RKS GRADIENT FOR STATE 1.1

 Atom          dE/dx               dE/dy               dE/dz

   1         0.002575845         0.000000000        -0.022147129
   2         0.015833624         0.000000000         0.022965774
   3        -0.008427316         0.000000000        -0.000515869
   4         0.001705170         0.000000000         0.004757895
   5        -0.005844178         0.004382455        -0.002535140
   6        -0.005844178        -0.004382455        -0.002535140

 Nuclear force contribution to virial =         0.011800515


 **********************************************************************************************************************************
 DATASETS  * FILE   NREC   LENGTH (MB)   RECORD NAMES
              1      20       24.38       500      610      700      900      950      970     1000      129      960     1100   
                                          VAR    BASINP    GEOM    SYMINP    ZMAT    AOBASIS   BASIS     P2S    ABASIS      S 
                                         1400     1410     1200     1210     1080     1600     1650     1300     1700     1800   
                                           T        V       H0       H01     AOSYM     SMH    MOLCAS    ERIS     OPER     GRID   

              2       5        0.50       700     1000      520     1800     2100   
                                         GEOM     BASIS   MCVARS    GRID      RKS  

 PROGRAMS   *        TOTAL     FORCE       RKS       INT
 CPU TIMES  *         3.00      1.70      0.91      0.27
 REAL TIME  *         4.64 SEC
 DISK USED  *        33.53 MB      
 **********************************************************************************************************************************

 RB3LYP3/cc-pVDZ energy=   -115.721093780526

        RKS-SCF 
   -115.72109378
 **********************************************************************************************************************************
 Variable memory released
