
 Primary working directories    : /scratch/kmoore
 Secondary working directories  : /scratch/kmoore
 Wavefunction directory         : /scratch/kmoore/
 Main file repository           : /scratch/kmoore/

 SHA1      : b6b3a4772808bb2d43777f23454e145ddfe12dc3
 NAME      : 2015.1.1
 ARCHNAME  : linux/x86_64
 FC        : /soft/mvapich2/2.2b_psm/intel-15.0/bin/mpif90
 BLASLIB   : -L/soft/intel/15.0.1/composer_xe_2015.0.090/mkl/lib/intel64 -lmkl_intel_ilp64 -lmkl_sequential -lmkl_core
 id        : anlgov

 Nodes     nprocs
 b448         7
 Number of processes for MPI-2 version of Molpro:   nprocs(total)=    8   nprocs(compute)=    7   nprocs(helper)=    1

 Using customized tuning parameters: mindgm=1; mindgv=20; mindgc=4; mindgr=1; noblas=0; minvec=7
 default implementation of scratch files=sf  

 memory,850,m
 gthresh,energy=1.0d-10,orbital=1.0d-10,oneint=1.d-12,twoint=1.d-14
 
 angstrom
 Geometry = {
  Q
  N 1 r1
  N 2 r2 1 a1
  O 2 r3 1 a1 3 d1
 }
 r2  =    1.12810118
 r3  =    1.18676835
 r1  =    1.
 a1  =   90.
 d1  =  180.
 
 basis=cc-pVTZ-F12
 {rhf,maxit=300
  wf,22,1,0,0}
 {uccsd(t)-f12b,maxit=300}
 
 {optg,gradient=1.d-8
  active,r2,r3}
 
 {freq}
 
 put,molden,freq.molden

 Variables initialized (889), CPU time= 0.01 sec
 Commands  initialized (702), CPU time= 0.01 sec, 572 directives.
 Default parameters read. Elapsed time= 0.06 sec

 Checking input...
 Passed
1


                                         ***  PROGRAM SYSTEM MOLPRO  ***
                                       Copyright, TTI GmbH Stuttgart, 2015
                                    Version 2015.1 linked Jan  8 2016 07:59:11


 **********************************************************************************************************************************
 LABEL *                                                                                 
  64 bit mpp version                                                                     DATE: 15-Nov-18          TIME: 15:39:35  
 **********************************************************************************************************************************

 SHA1:             b6b3a4772808bb2d43777f23454e145ddfe12dc3
 **********************************************************************************************************************************

 THRESHOLDS:

 ZERO    =  1.00D-12  ONEINT  =  1.00D-12  TWOINT  =  1.00D-14  PREFAC  =  1.00D-14  LOCALI  =  1.00D-09  EORDER  =  1.00D-04
 ENERGY  =  1.00D-10  ETEST   =  0.00D+00  EDENS   =  0.00D+00  THRDEDEF=  1.00D-06  GRADIENT=  1.00D-02  STEP    =  1.00D-03
 ORBITAL =  1.00D-10  CIVEC   =  1.00D-05  COEFF   =  1.00D-04  PRINTCI =  5.00D-02  PUNCHCI =  9.90D+01  OPTGRAD =  3.00D-04
 OPTENERG=  1.00D-06  OPTSTEP =  3.00D-04  THRGRAD =  1.00D-10  COMPRESS=  1.00D-11  VARMIN  =  1.00D-07  VARMAX  =  1.00D-03
 THRDOUB =  0.00D+00  THRDIV  =  1.00D-05  THRRED  =  1.00D-07  THRPSP  =  1.00D+00  THRDC   =  1.00D-10  THRCS   =  1.00D-10
 THRNRM  =  1.00D-08  THREQ   =  0.00D+00  THRDE   =  1.00D+00  THRREF  =  1.00D-05  SPARFAC =  1.00D+00  THRDLP  =  1.00D-07
 THRDIA  =  1.00D-10  THRDLS  =  1.00D-07  THRGPS  =  0.00D+00  THRKEX  =  0.00D+00  THRDIS  =  2.00D-01  THRVAR  =  1.00D-10
 THRLOC  =  1.00D-06  THRGAP  =  1.00D-06  THRLOCT = -1.00D+00  THRGAPT = -1.00D+00  THRORB  =  1.00D-06  THRMLTP =  0.00D+00
 THRCPQCI=  1.00D-10  KEXTA   =  0.00D+00  THRCOARS=  0.00D+00  SYMTOL  =  1.00D-06  GRADTOL =  1.00D-06  THROVL  =  1.00D-08
 THRORTH =  1.00D-08  GRID    =  1.00D-06  GRIDMAX =  1.00D-03  DTMAX   =  0.00D+00  THROCCDE=  1.00D-01  THROCCDE=  1.00D-01


 ZUNIT=ANG
 
 SETTING R2             =         1.12810118                                  
 SETTING R3             =         1.18676835                                  
 SETTING R1             =         1.00000000                                  
 SETTING A1             =        90.00000000                                  
 SETTING D1             =       180.00000000                                  

 Variable memory set to  850000000 words,  buffer space   230000 words

 SETTING BASIS          =    CC-PVTZ-F12


 Recomputing integrals since basis changed


 Using spherical harmonics

 Library entry N      S cc-pVTZ-F12          selected for orbital group  1
 Library entry N      P cc-pVTZ-F12          selected for orbital group  1
 Library entry N      D cc-pVTZ-F12          selected for orbital group  1
 Library entry N      F cc-pVTZ-F12          selected for orbital group  1
 Library entry O      S cc-pVTZ-F12          selected for orbital group  2
 Library entry O      P cc-pVTZ-F12          selected for orbital group  2
 Library entry O      D cc-pVTZ-F12          selected for orbital group  2
 Library entry O      F cc-pVTZ-F12          selected for orbital group  2

1PROGRAM * SEWARD (Integral evaluation for generally contracted gaussian basis sets)     Author: Roland Lindh, 1990

 Geometry written to block  1 of record 700

 Orientation using atomic masses  
 Molecule type: Linear
 Symmetry elements: X,Y
 Rotational constants:      12.5940973     12.5940973      0.0000000 GHz  (calculated with average atomic masses)

 Point group  C2v 



 ATOMIC COORDINATES

 NR  ATOM    CHARGE       X              Y              Z

   1  N       7.00    0.000000000    0.000000000    0.136819607
   2  N       7.00    0.000000000    0.000000000    2.268621878
   3  O       8.00    0.000000000    0.000000000   -2.105847548

 Bond lengths in Bohr (Angstrom)

 1-2  2.131802271  1-3  2.242667155
     ( 1.128101180)     ( 1.186768350)

 Bond angles

  2-1-3  180.00000000

 NUCLEAR CHARGE:                   22
 NUMBER OF PRIMITIVE AOS:         216
 NUMBER OF SYMMETRY AOS:          189
 NUMBER OF CONTRACTIONS:          159   (  66A1  +  39B1  +  39B2  +  15A2  )
 NUMBER OF CORE ORBITALS:           3   (   3A1  +   0B1  +   0B2  +   0A2  )
 NUMBER OF VALENCE ORBITALS:       12   (   6A1  +   3B1  +   3B2  +   0A2  )


 NUCLEAR REPULSION ENERGY   60.75706672

 EXTRA SYMMETRY OF AOS IN SYMMETRY 1:   1 1 1 1 1 1 1 1 1 1   1 1 1 2 1 2 1 2 1 2   1 2 1 1 1 1 1 1 1 1   1 1 1 1 1 2 1 2 1 2
                                        1 2 1 2 1 1 1 1 1 1   1 1 1 1 1 1 1 2 1 2   1 2 1 2 1 2
 EXTRA SYMMETRY OF AOS IN SYMMETRY 2:   1 1 1 1 1 1 1 1 1 1   2 1 2 1 1 1 1 1 1 1   1 1 1 2 1 2 1 1 1 1   1 1 1 1 1 1 2 1 2
 EXTRA SYMMETRY OF AOS IN SYMMETRY 3:   1 1 1 1 1 1 1 1 1 1   2 1 2 1 1 1 1 1 1 1   1 1 1 2 1 2 1 1 1 1   1 1 1 1 1 1 2 1 2

 Eigenvalues of metric

         1 0.685E-04 0.169E-03 0.215E-03 0.276E-03 0.512E-03 0.530E-03 0.570E-03 0.654E-03
         2 0.494E-03 0.576E-03 0.684E-03 0.220E-02 0.452E-02 0.858E-02 0.338E-01 0.514E-01
         3 0.494E-03 0.576E-03 0.684E-03 0.220E-02 0.452E-02 0.858E-02 0.338E-01 0.514E-01
         4 0.390E-01 0.910E-01 0.219E+00 0.239E+00 0.267E+00 0.470E+00 0.582E+00 0.670E+00


 Contracted 2-electron integrals neglected if value below      1.0D-14
 AO integral compression algorithm  1   Integral accuracy      1.0D-14

     161.219 MB (compressed) written to integral file ( 76.4%)

     Node minimum: 20.709 MB, node maximum: 24.379 MB


 NUMBER OF SORTED TWO-ELECTRON INTEGRALS:    3009720.     BUFFER LENGTH:  32768
 NUMBER OF SEGMENTS:   1  SEGMENT LENGTH:    3009720      RECORD LENGTH: 524288

 Memory used in sort:       3.57 MW

 SORT1 READ    26492611. AND WROTE     2417733. INTEGRALS IN      7 RECORDS. CPU TIME:     0.54 SEC, REAL TIME:     0.57 SEC
 SORT2 READ    17126942. AND WROTE    21109416. INTEGRALS IN    630 RECORDS. CPU TIME:     0.07 SEC, REAL TIME:     0.10 SEC

 Node minimum:     3002545.  Node maximum:     3037197. integrals

 OPERATOR DM      FOR CENTER  0  COORDINATES:    0.000000    0.000000    0.000000


 **********************************************************************************************************************************
 DATASETS  * FILE   NREC   LENGTH (MB)   RECORD NAMES
              1      18       19.41       500      610      700      900      950      970     1000      129      960     1100   
                                          VAR    BASINP    GEOM    SYMINP    ZMAT    AOBASIS   BASIS     P2S    ABASIS      S 
                                         1400     1410     1200     1210     1080     1600     1650     1700   
                                           T        V       H0       H01     AOSYM     SMH    MOLCAS    OPER   

 PROGRAMS   *        TOTAL       INT
 CPU TIMES  *         1.50      1.37
 REAL TIME  *         1.99 SEC
 DISK USED  *       355.58 MB      
 GA USED    *         0.00 MB       (max)       0.00 MB       (current)
 **********************************************************************************************************************************

1PROGRAM * RHF-SCF (CLOSED SHELL)       Authors: W. Meyer, H.-J. Werner


 NUMBER OF ELECTRONS:      11+   11-    SPACE SYMMETRY=1    SPIN SYMMETRY: Singlet 
 CONVERGENCE THRESHOLDS:    1.00E-10 (Density)    1.00E-11 (Energy)
 MAX. NUMBER OF ITERATIONS:      300
 INTERPOLATION TYPE:            DIIS
 INTERPOLATION STEPS:              2 (START)      1 (STEP)
 LEVEL SHIFTS:                  0.00 (CLOSED)  0.00 (OPEN) 



 Orbital guess generated from atomic densities. Full valence occupancy:    9   3   3   0

 Molecular orbital dump at record        2100.2

 Initial occupancy:   7   2   2   0

 ITERATION    DDIFF          GRAD             ENERGY        2-EL.EN.            DIPOLE MOMENTS         DIIS   ORB.
    1      0.000D+00      0.000D+00      -183.66544922    248.758223    0.00000    0.00000    0.14166    0    start
    2      0.000D+00      0.153D-01      -183.70976110    253.431074    0.00000    0.00000    0.34465    1    diag
    3      0.160D-01      0.120D-01      -183.76151803    252.014001    0.00000    0.00000    0.16265    2    diag
    4      0.818D-02      0.119D-02      -183.76228823    251.938442    0.00000    0.00000    0.28158    3    diag
    5      0.124D-02      0.653D-03      -183.76250503    251.885067    0.00000    0.00000    0.22814    4    diag
    6      0.626D-03      0.268D-03      -183.76256625    251.948163    0.00000    0.00000    0.25478    5    diag
    7      0.314D-03      0.989D-04      -183.76257557    251.941185    0.00000    0.00000    0.25461    6    diag
    8      0.152D-03      0.225D-04      -183.76257599    251.941801    0.00000    0.00000    0.25445    7    diag
    9      0.324D-04      0.397D-05      -183.76257600    251.941475    0.00000    0.00000    0.25440    8    diag
   10      0.539D-05      0.251D-06      -183.76257600    251.941513    0.00000    0.00000    0.25440    9    orth
   11      0.324D-06      0.414D-07      -183.76257600    251.941510    0.00000    0.00000    0.25440    9    diag
   12      0.476D-07      0.803D-08      -183.76257600    251.941511    0.00000    0.00000    0.25440    9    diag
   13      0.136D-07      0.210D-08      -183.76257600    251.941511    0.00000    0.00000    0.25440    9    diag
   14      0.419D-08      0.743D-09      -183.76257600    251.941511    0.00000    0.00000    0.25440    9    diag
   15      0.112D-08      0.107D-09      -183.76257600    251.941511    0.00000    0.00000    0.25440    9    diag
   16      0.184D-09      0.370D-10      -183.76257600    251.941511    0.00000    0.00000    0.25440    9    diag
   17      0.490D-10      0.157D-10      -183.76257600    251.941511    0.00000    0.00000    0.25440    0    orth

 Final occupancy:   7   2   2   0

 !RHF STATE 1.1 Energy               -183.762576004320
 Nuclear energy                        60.75706672
 One-electron energy                 -370.49039801
 Two-electron energy                  125.97075529
 Virial quotient                       -1.00205382
 !RHF STATE 1.1 Dipole moment           0.00000000     0.00000000     0.25439799
 Dipole moment /Debye                   0.00000000     0.00000000     0.64657284

 Orbital energies:

         1.1          2.1          3.1          4.1          5.1          6.1          7.1          8.1          9.1
    -20.655464   -15.844162   -15.698559    -1.611772    -1.423012    -0.833609    -0.699284     0.066497     0.079932

         1.2          2.2          3.2          4.2
     -0.762285    -0.492007     0.095112     0.137437

         1.3          2.3          3.3          4.3
     -0.762285    -0.492007     0.095112     0.137437

         1.4          2.4
      0.755731     1.027042

 HOMO      2.2    -0.492007 =     -13.3882eV
 LUMO      8.1     0.066497 =       1.8095eV
 LUMO-HOMO         0.558504 =      15.1977eV


 **********************************************************************************************************************************
 DATASETS  * FILE   NREC   LENGTH (MB)   RECORD NAMES
              1      18       19.43       500      610      700      900      950      970     1000      129      960     1100   
                                          VAR    BASINP    GEOM    SYMINP    ZMAT    AOBASIS   BASIS     P2S    ABASIS      S 
                                         1400     1410     1200     1210     1080     1600     1650     1700   
                                           T        V       H0       H01     AOSYM     SMH    MOLCAS    OPER   

              2       4        0.58       700     1000      520     2100   
                                         GEOM     BASIS   MCVARS     RHF  

 PROGRAMS   *        TOTAL       RHF       INT
 CPU TIMES  *         1.83      0.33      1.37
 REAL TIME  *         2.37 SEC
 DISK USED  *       499.95 MB      
 SF USED    *         0.03 MB      
 GA USED    *         0.00 MB       (max)       0.00 MB       (current)
 **********************************************************************************************************************************


1PROGRAM * CCSD (Unrestricted open-shell coupled cluster)     Authors: C. Hampel, H.-J. Werner, 1991, M. Deegan, P.J. Knowles, 1992

                           UCCSD-F12 implementation by G. Knizia and H.-J. Werner, 2008

                   Density fitting integral evaluation by F.R. Manby, 2003,2007, G. Knizia, 2010

 Basis set AUG-CC-PVTZ/JKFIT generated.  Number of basis functions:   312 
 Basis set CC-PVTZ-F12/OPTRI generated.  Number of basis functions:   225 
 Basis set AUG-CC-PVTZ/MP2FIT generated. Number of basis functions:   318 

 Convergence thresholds:  THRVAR = 1.00D-14  THRDEN = 1.00D-10

 CCSD(T)     terms to be evaluated (factor= 1.000)


 Number of core orbitals:           3 (   3   0   0   0 )
 Number of closed-shell orbitals:   8 (   4   2   2   0 )
 Number of external orbitals:     148 (  59  37  37  15 )

 Memory could be reduced to 14.34 Mwords without degradation in triples

 Number of N-1 electron functions:              16
 Number of N-2 electron functions:             120
 Number of singly external CSFs:               768
 Number of doubly external CSFs:            524688
 Total number of CSFs:                      525456

 Molecular orbitals read from record     2100.2  Type=RHF/CANONICAL (state 1.1)

 Integral transformation finished. Total CPU:   0.27 sec, npass=  1  Memory used:   1.51 MW
 
 Geminal basis:    OPTFULL  GEM_TYPE=SLATER  BETA=1.0  NGEM=6

 Optimizing Gaussian exponents for each gem_beta

 Geminal optimization for beta= 1.0000
 Weight function:   m=0, omega= 1.4646

 Augmented Hessian optimization of geminal fit. Trust ratio= 0.40000
 Convergence reached after   2 iterations. Final gradient= 8.24D-16, Step= 4.32D-06, Delta= 1.28D-09
 
 Alpha:                 0.19532     0.81920     2.85917     9.50073    35.69989   197.79328
 Coeff:                 0.27070     0.30552     0.18297     0.10986     0.06810     0.04224
 
 
 WFN_F12=FIX,EG    DECOUPLE_EXPL=F   HYBRID=0    NOX=F   SEMIINT_F12=T   CORE_SINGLES=F
 
 AO(A)-basis ORBITAL           loaded. Number of functions:     159
 RI(R)-basis CC-PVTZ-F12/OPTRI loaded. Number of functions:     225
 DF-basis AUG-CC-PVTZ/JKFIT    loaded. Number of functions:     312

 Screening thresholds:   THRAO=  1.00D-10  THRMO=  1.00D-10  THRPROD=  1.00D-10
                         THRSW=  1.00D-07  THROV=  1.00D-12  THRAOF12=   1.00D-08

 CPU time for one-electron matrices               2.83 sec
 
 Construction of ABS:
 Pseudo-inverse stability          4.43E-12
 Smallest eigenvalue of S          1.31E-04  (threshold= 1.00E-08)
 Ratio eigmin/eigmax               2.21E-05  (threshold= 1.00E-09)
 Smallest eigenvalue of S kept     1.31E-04  (threshold= 1.31E-04, 0 functions deleted, 225 kept)
 
 Construction of CABS:
 Pseudo-inverse stability          3.25E-10
 Smallest eigenvalue of S          4.32E-07  (threshold= 1.00E-08)
 Ratio eigmin/eigmax               4.32E-07  (threshold= 1.00E-09)
 Smallest eigenvalue of S kept     4.32E-07  (threshold= 4.32E-07, 0 functions deleted, 225 kept)
 
 CPU time for basis constructions                 0.24 sec
 Fock operators(MO) rebuilt from dump record.
 CPU time for fock operators                      0.05 sec
 
                                      TOTAL          ALPHA          BETA    
  Singles Contributions MO        -0.000000000   -0.000000000   -0.000000000
  Singles Contributions CABS      -0.001373122   -0.000686561   -0.000686561
  Pure DF-RHF relaxation          -0.001373122
 
 CPU time for singles                             0.10 sec
 
 AO(A)-basis ORBITAL           loaded. Number of functions:     159
 RI(R)-basis CC-PVTZ-F12/OPTRI loaded. Number of functions:     225
 DF-basis AUG-CC-PVTZ/MP2FIT   loaded. Number of functions:     318

 Screening thresholds:   THRAO=  1.00D-10  THRMO=  1.00D-10  THRPROD=  1.00D-10
                         THRSW=  1.00D-07  THROV=  1.00D-12  THRAOF12=   1.00D-08

 CPU time for transformed integrals               3.00 sec
 CPU time for F12 matrices                        0.57 sec

 Diagonal F12 ansatz with fixed amplitudes:   TS= 0.5000  TT= 0.2500  TN= 0.3750
 
 ITER.     SQ.NORM      CORR.ENERGY   TOTAL ENERGY  ENERGY CHANGE      VAR         CPU   MICRO    DIIS
   1      1.19978005    -0.72268659  -184.48663571    -7.2406E-01   2.00E-01      0.02  1  1  1   0  0
   2      1.19978005    -0.72268659  -184.48663571    -8.6597E-15   2.63E-27      0.04  0  0  0   0  0
 
 - - Continuing with F12/conv. amplitude coupling turned on.
 
   3      1.19971477    -0.72280283  -184.48675195    -1.1624E-04   4.65E-05      0.08  1  1  1   1  1
   4      1.19971477    -0.72280283  -184.48675195    -1.1102E-16   4.57E-28      0.11  1  1  1   0  1
 
 CPU time for iterative RMP2-F12                  0.11 sec
 
 
 DF-RMP2-F12 doubles corrections:
 - - - - - - - - - - - - - - - - 
  Approx.                             TOTAL           A-B            A-A            B-B    
  RMP2-F12/3C(FIX)                -0.052549054   -0.048493474   -0.002027790   -0.002027790
  RMP2-F12/3*C(FIX)               -0.052432812   -0.048520724   -0.001956044   -0.001956044
  RMP2-F12/3*C(DX)                -0.052680110   -0.048740023   -0.001970043   -0.001970043
  RMP2-F12/3*C(FIX,DX)            -0.056098091   -0.051844984   -0.002126553   -0.002126553
 
 DF-RMP2-F12 doubles energies:
 - - - - - - - - - - - - - - -
  Approx.                             TOTAL           A-B            A-A            B-B    
  RMP2                            -0.670253773   -0.490643092   -0.089805341   -0.089805341
  RMP2-F12/3C(FIX)                -0.722802827   -0.539136566   -0.091833130   -0.091833130
  RMP2-F12/3*C(FIX)               -0.722686586   -0.539163816   -0.091761385   -0.091761385
  RMP2-F12/3*C(DX)                -0.722933883   -0.539383115   -0.091775384   -0.091775384
  RMP2-F12/3*C(FIX,DX)            -0.726351864   -0.542488076   -0.091931894   -0.091931894
 
 
  Reference energy                   -183.762576004320
  CABS relaxation correction to RHF    -0.001373122145
  New reference energy               -183.763949126466
 
  RMP2-F12 singles (MO) energy         -0.000000000000
  RMP2-F12 pair energy                 -0.722802826893
  RMP2-F12 correlation energy          -0.722802826893
 
  RMP2-F12/3C(FIX) energy            -184.486751953359

 Starting RMP2 calculation

 ITER.      SQ.NORM     CORR.ENERGY   TOTAL ENERGY   ENERGY CHANGE        DEN1      VAR(S)    VAR(P)  DIIS     TIME
   1      1.19699526    -0.66750868  -184.43008468    -0.66750868    -0.00250342  0.44D-20  0.11D-02  1  1     7.39
   2      1.19967994    -0.67020694  -184.43278294    -0.00269826    -0.00000419  0.61D-22  0.24D-05  2  2     7.42
   3      1.19977580    -0.67026246  -184.43283847    -0.00005553    -0.00000001  0.63D-24  0.30D-08  3  3     7.45
   4      1.19977699    -0.67026271  -184.43283871    -0.00000024    -0.00000000  0.74D-26  0.30D-11  4  4     7.49
   5      1.19977700    -0.67026271  -184.43283871    -0.00000000    -0.00000000  0.11D-27  0.39D-14  5  5     7.53
   6      1.19977700    -0.67026271  -184.43283871     0.00000000    -0.00000000  0.15D-29  0.81D-17  6  6     7.58

 Norm of t1 vector:      0.00000000      S-energy:    -0.00000000      T1 diagnostic:  0.00000000
 Norm of t2 vector:      0.44696420      P-energy:    -0.67026271
                                         Alpha-Beta:  -0.49086406
                                         Alpha-Alpha: -0.08969933
                                         Beta-Beta:   -0.08969933

 Spin contamination <S**2-Sz**2-Sz>     0.00000000
  Reference energy                   -183.763949126466
  RHF-RMP2 correlation energy          -0.670262708654
 !RHF-RMP2 energy                    -184.434211835119

 Starting UCCSD calculation

 ITER.      SQ.NORM     CORR.ENERGY   TOTAL ENERGY   ENERGY CHANGE        DEN1      VAR(S)    VAR(P)  DIIS     TIME
   1      1.16387702    -0.61380647  -184.37638248    -0.61380647    -0.02578580  0.72D-02  0.43D-02  1  1     7.85
   2      1.17922822    -0.63417225  -184.39674825    -0.02036578    -0.00249582  0.13D-03  0.86D-03  2  2     8.14
   3      1.18457924    -0.63539807  -184.39797407    -0.00122582    -0.00043432  0.23D-03  0.80D-04  3  3     8.43
   4      1.18852517    -0.63721318  -184.39978919    -0.00181512    -0.00006595  0.20D-04  0.17D-04  4  4     8.75
   5      1.19055811    -0.63783585  -184.40041186    -0.00062267    -0.00000923  0.51D-05  0.17D-05  5  5     9.06
   6      1.19108972    -0.63788427  -184.40046028    -0.00004842    -0.00000109  0.46D-06  0.21D-06  6  6     9.36
   7      1.19124424    -0.63789818  -184.40047418    -0.00001390    -0.00000016  0.84D-07  0.29D-07  6  1     9.66
   8      1.19126963    -0.63790526  -184.40048126    -0.00000708    -0.00000002  0.94D-08  0.50D-08  6  2     9.97
   9      1.19127991    -0.63790452  -184.40048053     0.00000073    -0.00000000  0.54D-09  0.10D-08  6  4    10.27
  10      1.19128172    -0.63790511  -184.40048111    -0.00000059    -0.00000000  0.95D-10  0.10D-09  6  3    10.58
  11      1.19128246    -0.63790507  -184.40048107     0.00000004    -0.00000000  0.67D-11  0.19D-10  6  5    10.89
  12      1.19128175    -0.63790463  -184.40048063     0.00000044    -0.00000000  0.14D-11  0.25D-11  6  6    11.19
  13      1.19128149    -0.63790461  -184.40048061     0.00000003    -0.00000000  0.24D-12  0.20D-12  6  2    11.49
  14      1.19128131    -0.63790451  -184.40048051     0.00000010    -0.00000000  0.10D-13  0.14D-13  6  1    11.79
  15      1.19128129    -0.63790451  -184.40048051     0.00000000    -0.00000000  0.53D-14  0.15D-14  6  2    12.10
  16      1.19128127    -0.63790450  -184.40048050     0.00000001    -0.00000000  0.24D-15  0.17D-15  6  4    12.40
  17      1.19128126    -0.63790450  -184.40048050     0.00000000    -0.00000000  0.25D-16  0.14D-16  6  3    12.71
  18      1.19128126    -0.63790450  -184.40048050    -0.00000000    -0.00000000  0.24D-17  0.20D-17  6  5    13.01
  19      1.19128126    -0.63790450  -184.40048050     0.00000000    -0.00000000  0.29D-18  0.30D-18  6  6    13.32

 Norm of t1 vector:      0.11211391      S-energy:    -0.00000000      T1 diagnostic:  0.01981913
                                                                       D1 diagnostic:  0.04633890
 Norm of t2 vector:      0.42274311      P-energy:    -0.63790450
                                         Alpha-Beta:  -0.48885611
                                         Alpha-Alpha: -0.07452419
                                         Beta-Beta:   -0.07452419

 Spin contamination <S**2-Sz**2-Sz>     0.00000000

 Memory could be reduced to 15.05 Mwords without degradation in triples
 

 RESULTS
 =======

  Reference energy                   -183.762576004320
  CABS relaxation correction to RHF    -0.001373122145
  New reference energy               -183.763949126466
 
  F12 corrections for ansatz 3C(FIX) added to UCCSD energy. Coupling mode: 15
 
  UCCSD-F12b singles energy            -0.000000000005
  UCCSD-F12b pair energy               -0.680879189086
  UCCSD-F12b correlation energy        -0.680879189091
  Triples (T) contribution             -0.037318816303
  Total correlation energy             -0.718198005394
 
  RHF-UCCSD-F12b energy              -184.444828315557
  RHF-UCCSD[T]-F12b energy           -184.484899885783
  RHF-UCCSD-T-F12b energy            -184.481246387651
 !RHF-UCCSD(T)-F12b energy           -184.482147131860

 Program statistics:

 Available memory in ccsd:               849999308
 Min. memory needed in ccsd:               1619417
 Max. memory used in ccsd:                 2249321
 Max. memory used in cckext:               1946278 (20 integral passes)
 Max. memory used in cckint:               1514071 ( 1 integral passes)



 **********************************************************************************************************************************
 DATASETS  * FILE   NREC   LENGTH (MB)   RECORD NAMES
              1      18       19.43       500      610      700      900      950      970     1000      129      960     1100   
                                          VAR    BASINP    GEOM    SYMINP    ZMAT    AOBASIS   BASIS     P2S    ABASIS      S 
                                         1400     1410     1200     1210     1080     1600     1650     1700   
                                           T        V       H0       H01     AOSYM     SMH    MOLCAS    OPER   

              2       5        0.74       700     1000      520     2100     7360   
                                         GEOM     BASIS   MCVARS     RHF    F12ABS    

 PROGRAMS   *        TOTAL      F12B       RHF       INT
 CPU TIMES  *        19.67     17.83      0.33      1.37
 REAL TIME  *        22.75 SEC
 DISK USED  *       958.20 MB      
 SF USED    *       769.54 MB      
 GA USED    *         2.47 MB       (max)       0.00 MB       (current)
 **********************************************************************************************************************************


 PROGRAM * OPT (Geometry optimization)     Authors: F. Eckert and H.-J. Werner


 BFGS update of hessian

 Running default procedure: RHF-SCF000  UCCSD(T)-F12B

 Geometry optimization using default procedure for command UCCSD(T)-F12B

 Inactive variables:    R1 A1 D1

 Active variables:      R2 R3

 Geometry written to block  1 of record 700
 

 Number of displacements for numerical gradient:      4

 Starting numerical gradient for UCCSD(T)-F12B
 Starting task   1 Incrementing variable R2       by   0.00529 ANG to    1.13339 ANG. CPU=    0.00 sec, Elapsed=    0.00 sec


 Recomputing integrals since geometry changed

1PROGRAM * SEWARD (Integral evaluation for generally contracted gaussian basis sets)     Author: Roland Lindh, 1990

 Geometry written to block  1 of record 700

 Orientation using atomic masses  
 Molecule type: Linear
 Symmetry elements: X,Y
 Rotational constants:      12.5384076     12.5384076      0.0000000 GHz  (calculated with average atomic masses)

 Point group  C2v 



 ATOMIC COORDINATES

 NR  ATOM    CHARGE       X              Y              Z

   1  N       7.00    0.000000000    0.000000000    0.133637192
   2  N       7.00    0.000000000    0.000000000    2.275439463
   3  O       8.00    0.000000000    0.000000000   -2.109029963

 Bond lengths in Bohr (Angstrom)

 1-2  2.141802271  1-3  2.242667155
     ( 1.133392952)     ( 1.186768350)

 Bond angles

  2-1-3  179.99999852

 NUCLEAR CHARGE:                   22
 NUMBER OF PRIMITIVE AOS:         216
 NUMBER OF SYMMETRY AOS:          189
 NUMBER OF CONTRACTIONS:          159   (  66A1  +  39B1  +  39B2  +  15A2  )
 NUMBER OF CORE ORBITALS:           3   (   3A1  +   0B1  +   0B2  +   0A2  )
 NUMBER OF VALENCE ORBITALS:       12   (   6A1  +   3B1  +   3B2  +   0A2  )


 NUCLEAR REPULSION ENERGY   60.62055192

 EXTRA SYMMETRY OF AOS IN SYMMETRY 1:   1 1 1 1 1 1 1 1 1 1   1 1 1 2 1 2 1 2 1 2   1 2 1 1 1 1 1 1 1 1   1 1 1 1 1 2 1 2 1 2
                                        1 2 1 2 1 1 1 1 1 1   1 1 1 1 1 1 1 2 1 2   1 2 1 2 1 2
 EXTRA SYMMETRY OF AOS IN SYMMETRY 2:   1 1 1 1 1 1 1 1 1 1   2 1 2 1 1 1 1 1 1 1   1 1 1 2 1 2 1 1 1 1   1 1 1 1 1 1 2 1 2
 EXTRA SYMMETRY OF AOS IN SYMMETRY 3:   1 1 1 1 1 1 1 1 1 1   2 1 2 1 1 1 1 1 1 1   1 1 1 2 1 2 1 1 1 1   1 1 1 1 1 1 2 1 2

 Eigenvalues of metric

         1 0.700E-04 0.170E-03 0.217E-03 0.279E-03 0.513E-03 0.530E-03 0.570E-03 0.655E-03
         2 0.495E-03 0.576E-03 0.684E-03 0.223E-02 0.454E-02 0.865E-02 0.341E-01 0.516E-01
         3 0.495E-03 0.576E-03 0.684E-03 0.223E-02 0.454E-02 0.865E-02 0.341E-01 0.516E-01
         4 0.396E-01 0.915E-01 0.219E+00 0.239E+00 0.268E+00 0.470E+00 0.585E+00 0.671E+00


 Contracted 2-electron integrals neglected if value below      1.0D-14
 AO integral compression algorithm  1   Integral accuracy      1.0D-14

     161.219 MB (compressed) written to integral file ( 76.3%)

     Node minimum: 20.447 MB, node maximum: 24.904 MB


 NUMBER OF SORTED TWO-ELECTRON INTEGRALS:    3009720.     BUFFER LENGTH:  32768
 NUMBER OF SEGMENTS:   1  SEGMENT LENGTH:    3009720      RECORD LENGTH: 524288

 Memory used in sort:       3.57 MW

 SORT1 READ    26492611. AND WROTE     2417471. INTEGRALS IN      7 RECORDS. CPU TIME:     0.55 SEC, REAL TIME:     0.58 SEC
 SORT2 READ    17124873. AND WROTE    21109416. INTEGRALS IN    623 RECORDS. CPU TIME:     0.09 SEC, REAL TIME:     0.11 SEC

 Node minimum:     3002545.  Node maximum:     3037197. integrals

 OPERATOR DM      FOR CENTER  0  COORDINATES:    0.000000    0.000000    0.000000
1PROGRAM * RHF-SCF (CLOSED SHELL)       Authors: W. Meyer, H.-J. Werner


 NUMBER OF ELECTRONS:      11+   11-    SPACE SYMMETRY=1    SPIN SYMMETRY: Singlet 
 CONVERGENCE THRESHOLDS:    1.00E-10 (Density)    1.00E-11 (Energy)
 MAX. NUMBER OF ITERATIONS:      300
 INTERPOLATION TYPE:            DIIS
 INTERPOLATION STEPS:              2 (START)      1 (STEP)
 LEVEL SHIFTS:                  0.00 (CLOSED)  0.00 (OPEN) 

 Number of closed-shell orbitals:   11 (   7   2   2   0 )


 Molecular orbitals read from record     2100.2  Type=RHF/CANONICAL (state 1.1)

 Molecular orbital dump at record        2100.1

 ITERATION    DDIFF          GRAD             ENERGY        2-EL.EN.            DIPOLE MOMENTS         DIIS   ORB.
    1      0.000D+00      0.000D+00      -183.76113655    251.721695    0.00000    0.00000    0.25270    0    start
    2      0.000D+00      0.266D-03      -183.76116330    251.663133    0.00000    0.00000    0.24955    1    diag
    3      0.360D-03      0.780D-04      -183.76116611    251.677852    0.00000    0.00000    0.24544    2    diag
    4      0.758D-04      0.385D-04      -183.76116686    251.678458    0.00000    0.00000    0.24669    3    diag
    5      0.345D-04      0.134D-04      -183.76116700    251.675994    0.00000    0.00000    0.24563    4    diag
    6      0.148D-04      0.510D-05      -183.76116702    251.676919    0.00000    0.00000    0.24586    5    diag
    7      0.675D-05      0.239D-05      -183.76116702    251.676604    0.00000    0.00000    0.24558    6    diag
    8      0.288D-05      0.100D-05      -183.76116702    251.676602    0.00000    0.00000    0.24562    7    orth
    9      0.129D-05      0.131D-06      -183.76116703    251.676603    0.00000    0.00000    0.24562    8    diag
   10      0.241D-06      0.290D-07      -183.76116703    251.676601    0.00000    0.00000    0.24562    9    diag
   11      0.552D-07      0.648D-08      -183.76116703    251.676601    0.00000    0.00000    0.24562    9    diag
   12      0.119D-07      0.943D-09      -183.76116703    251.676601    0.00000    0.00000    0.24562    9    diag
   13      0.190D-08      0.107D-09      -183.76116703    251.676601    0.00000    0.00000    0.24562    9    diag
   14      0.282D-09      0.170D-10      -183.76116703    251.676601    0.00000    0.00000    0.24562    9    diag
   15      0.244D-10      0.428D-11      -183.76116703    251.676601    0.00000    0.00000    0.24562    0    orth

 Final occupancy:   7   2   2   0

 !RHF STATE 1.1 Energy               -183.761167025006
 Nuclear energy                        60.62055192
 One-electron energy                 -370.22001943
 Two-electron energy                  125.83830049
 Virial quotient                       -1.00221718
 !RHF STATE 1.1 Dipole moment           0.00000000     0.00000000     0.24561666
 Dipole moment /Debye                   0.00000000     0.00000000     0.62425439

 Orbital energies:

         1.1          2.1          3.1          4.1          5.1          6.1          7.1          8.1          9.1
    -20.656747   -15.845339   -15.699710    -1.611063    -1.419994    -0.834705    -0.699173     0.066480     0.079951

         1.2          2.2          3.2          4.2
     -0.761120    -0.491369     0.094934     0.136904

         1.3          2.3          3.3          4.3
     -0.761120    -0.491369     0.094934     0.136904

         1.4          2.4
      0.756020     1.026572

 HOMO      2.2    -0.491369 =     -13.3708eV
 LUMO      8.1     0.066480 =       1.8090eV
 LUMO-HOMO         0.557849 =      15.1798eV


 **********************************************************************************************************************************
 DATASETS  * FILE   NREC   LENGTH (MB)   RECORD NAMES
              1      19       19.85       500      610      700      900      950      970     1000      129      960     1100   
                                          VAR    BASINP    GEOM    SYMINP    ZMAT    AOBASIS   BASIS     P2S    ABASIS      S 
                                         1400     1410     1200     1210     1080     1600     1650     1700     2100   
                                           T        V       H0       H01     AOSYM     SMH    MOLCAS    OPER      RHF  

              2       6        0.74       700     1000      520     2100     7360     5600   
                                         GEOM     BASIS   MCVARS     RHF    F12ABS    GINFO   

 PROGRAMS   *        TOTAL       RHF      F12B       RHF       INT
 CPU TIMES  *        21.41      1.74     17.83      0.33      1.37
 REAL TIME  *        24.65 SEC
 DISK USED  *       961.85 MB      
 SF USED    *       769.54 MB      
 GA USED    *         2.47 MB       (max)       0.00 MB       (current)
 **********************************************************************************************************************************


1PROGRAM * CCSD (Unrestricted open-shell coupled cluster)     Authors: C. Hampel, H.-J. Werner, 1991, M. Deegan, P.J. Knowles, 1992

                           UCCSD-F12 implementation by G. Knizia and H.-J. Werner, 2008

                   Density fitting integral evaluation by F.R. Manby, 2003,2007, G. Knizia, 2010

 Basis set AUG-CC-PVTZ/JKFIT generated.  Number of basis functions:   312 
 Basis set CC-PVTZ-F12/OPTRI generated.  Number of basis functions:   225 
 Basis set AUG-CC-PVTZ/MP2FIT generated. Number of basis functions:   318 

 Convergence thresholds:  THRVAR = 1.00D-14  THRDEN = 1.00D-10

 CCSD(T)     terms to be evaluated (factor= 1.000)


 Number of core orbitals:           3 (   3   0   0   0 )
 Number of closed-shell orbitals:   8 (   4   2   2   0 )
 Number of external orbitals:     148 (  59  37  37  15 )

 Memory could be reduced to 15.02 Mwords without degradation in triples

 Number of N-1 electron functions:              16
 Number of N-2 electron functions:             120
 Number of singly external CSFs:               768
 Number of doubly external CSFs:            524688
 Total number of CSFs:                      525456

 Molecular orbitals read from record     2100.1  Type=RHF/CANONICAL (state 1.1)

 Integral transformation finished. Total CPU:   0.25 sec, npass=  1  Memory used:   1.51 MW
 
 Geminal basis:    OPTFULL  GEM_TYPE=SLATER  BETA=1.0  NGEM=6

 Optimizing Gaussian exponents for each gem_beta

 Geminal optimization for beta= 1.0000
 Weight function:   m=0, omega= 1.4646

 Augmented Hessian optimization of geminal fit. Trust ratio= 0.40000
 Convergence reached after   2 iterations. Final gradient= 8.24D-16, Step= 4.32D-06, Delta= 1.28D-09
 
 Alpha:                 0.19532     0.81920     2.85917     9.50073    35.69989   197.79328
 Coeff:                 0.27070     0.30552     0.18297     0.10986     0.06810     0.04224
 
 
 WFN_F12=FIX,EG    DECOUPLE_EXPL=F   HYBRID=0    NOX=F   SEMIINT_F12=T   CORE_SINGLES=F
 
 AO(A)-basis ORBITAL           loaded. Number of functions:     159
 RI(R)-basis CC-PVTZ-F12/OPTRI loaded. Number of functions:     225
 DF-basis AUG-CC-PVTZ/JKFIT    loaded. Number of functions:     312

 Screening thresholds:   THRAO=  1.00D-11  THRMO=  1.00D-11  THRPROD=  1.00D-11
                         THRSW=  1.00D-08  THROV=  1.00D-12  THRAOF12=   1.00D-08

 CPU time for one-electron matrices               2.79 sec
 
 Reading frozen CA basis information from record 7360.2.
 
 Construction of ABS:
 Pseudo-inverse stability          5.17E-12
 Smallest eigenvalue of S          1.34E-04  (threshold= 1.00E-08)
 Ratio eigmin/eigmax               2.27E-05  (threshold= 1.00E-09)
 Smallest eigenvalue of S kept     1.34E-04  (threshold= 1.34E-04, 0 functions deleted, 225 kept)
 
 Construction of CABS:
 Pseudo-inverse stability          2.73E-10
 Smallest eigenvalue of S          4.37E-07  (threshold= 1.00E-08)
 Ratio eigmin/eigmax               4.37E-07  (threshold= 1.00E-09)
 Smallest eigenvalue of S kept     4.37E-07  (threshold= 4.37E-07, 0 functions deleted, 225 kept)
 
 CPU time for basis constructions                 0.26 sec
 Fock operators(MO) rebuilt from dump record.
 CPU time for fock operators                      0.05 sec
 
                                      TOTAL          ALPHA          BETA    
  Singles Contributions MO        -0.000000000   -0.000000000   -0.000000000
  Singles Contributions CABS      -0.001369968   -0.000684984   -0.000684984
  Pure DF-RHF relaxation          -0.001369968
 
 CPU time for singles                             0.10 sec
 
 AO(A)-basis ORBITAL           loaded. Number of functions:     159
 RI(R)-basis CC-PVTZ-F12/OPTRI loaded. Number of functions:     225
 DF-basis AUG-CC-PVTZ/MP2FIT   loaded. Number of functions:     318

 Screening thresholds:   THRAO=  1.00D-11  THRMO=  1.00D-11  THRPROD=  1.00D-11
                         THRSW=  1.00D-08  THROV=  1.00D-12  THRAOF12=   1.00D-08

 CPU time for transformed integrals               2.93 sec
 CPU time for F12 matrices                        0.49 sec

 Diagonal F12 ansatz with fixed amplitudes:   TS= 0.5000  TT= 0.2500  TN= 0.3750
 
 ITER.     SQ.NORM      CORR.ENERGY   TOTAL ENERGY  ENERGY CHANGE      VAR         CPU   MICRO    DIIS
   1      1.20141920    -0.72446340  -184.48700039    -7.2583E-01   2.01E-01      0.02  1  1  1   0  0
   2      1.20141920    -0.72446340  -184.48700039     1.0658E-14   5.58E-27      0.04  0  0  0   0  0
 
 - - Continuing with F12/conv. amplitude coupling turned on.
 
   3      1.20135389    -0.72458214  -184.48711913    -1.1874E-04   4.65E-05      0.07  1  1  1   1  1
   4      1.20135389    -0.72458214  -184.48711913     0.0000E+00   1.47E-27      0.11  1  1  1   0  1
 
 CPU time for iterative RMP2-F12                  0.11 sec
 
 
 DF-RMP2-F12 doubles corrections:
 - - - - - - - - - - - - - - - - 
  Approx.                             TOTAL           A-B            A-A            B-B    
  RMP2-F12/3C(FIX)                -0.052507584   -0.048455066   -0.002026259   -0.002026259
  RMP2-F12/3*C(FIX)               -0.052388846   -0.048480145   -0.001954350   -0.001954350
  RMP2-F12/3*C(DX)                -0.052634333   -0.048697924   -0.001968205   -0.001968205
  RMP2-F12/3*C(FIX,DX)            -0.056037436   -0.051789966   -0.002123735   -0.002123735
 
 DF-RMP2-F12 doubles energies:
 - - - - - - - - - - - - - - -
  Approx.                             TOTAL           A-B            A-A            B-B    
  RMP2                            -0.672074554   -0.491882828   -0.090095863   -0.090095863
  RMP2-F12/3C(FIX)                -0.724582137   -0.540337894   -0.092122122   -0.092122122
  RMP2-F12/3*C(FIX)               -0.724463400   -0.540362973   -0.092050213   -0.092050213
  RMP2-F12/3*C(DX)                -0.724708887   -0.540580752   -0.092064068   -0.092064068
  RMP2-F12/3*C(FIX,DX)            -0.728111990   -0.543672794   -0.092219598   -0.092219598
 
 
  Reference energy                   -183.761167025005
  CABS relaxation correction to RHF    -0.001369968085
  New reference energy               -183.762536993090
 
  RMP2-F12 singles (MO) energy         -0.000000000000
  RMP2-F12 pair energy                 -0.724582137383
  RMP2-F12 correlation energy          -0.724582137383
 
  RMP2-F12/3C(FIX) energy            -184.487119130473

 Starting RMP2 calculation

 ITER.      SQ.NORM     CORR.ENERGY   TOTAL ENERGY   ENERGY CHANGE        DEN1      VAR(S)    VAR(P)  DIIS     TIME
   1      1.19857654    -0.66929217  -184.43045919    -0.66929217    -0.00253617  0.97D-22  0.11D-02  1  1     7.19
   2      1.20131627    -0.67202692  -184.43319395    -0.00273475    -0.00000430  0.12D-23  0.25D-05  2  2     7.22
   3      1.20141493    -0.67208374  -184.43325076    -0.00005682    -0.00000001  0.12D-25  0.31D-08  3  3     7.26
   4      1.20141617    -0.67208399  -184.43325102    -0.00000025    -0.00000000  0.15D-27  0.31D-11  4  4     7.30
   5      1.20141617    -0.67208399  -184.43325102    -0.00000000    -0.00000000  0.23D-29  0.41D-14  5  5     7.35
   6      1.20141617    -0.67208399  -184.43325102     0.00000000    -0.00000000  0.35D-31  0.86D-17  6  6     7.40

 Norm of t1 vector:      0.00000000      S-energy:    -0.00000000      T1 diagnostic:  0.00000000
 Norm of t2 vector:      0.44879413      P-energy:    -0.67208399
                                         Alpha-Beta:  -0.49210336
                                         Alpha-Alpha: -0.08999032
                                         Beta-Beta:   -0.08999032

 Spin contamination <S**2-Sz**2-Sz>     0.00000000
  Reference energy                   -183.762536993090
  RHF-RMP2 correlation energy          -0.672083992712
 !RHF-RMP2 energy                    -184.434620985801

 Starting UCCSD calculation

 ITER.      SQ.NORM     CORR.ENERGY   TOTAL ENERGY   ENERGY CHANGE        DEN1      VAR(S)    VAR(P)  DIIS     TIME
   1      1.16461804    -0.61462063  -184.37578766    -0.61462063    -0.02614867  0.73D-02  0.44D-02  1  1     7.66
   2      1.18017180    -0.63524568  -184.39641271    -0.02062505    -0.00252461  0.14D-03  0.88D-03  2  2     7.94
   3      1.18556679    -0.63646542  -184.39763244    -0.00121974    -0.00043961  0.23D-03  0.82D-04  3  3     8.24
   4      1.18955475    -0.63829340  -184.39946043    -0.00182799    -0.00006700  0.20D-04  0.17D-04  4  4     8.54
   5      1.19161875    -0.63892664  -184.40009367    -0.00063324    -0.00000938  0.51D-05  0.17D-05  5  5     8.85
   6      1.19215617    -0.63897597  -184.40014299    -0.00004933    -0.00000112  0.46D-06  0.21D-06  6  6     9.17
   7      1.19231332    -0.63898984  -184.40015687    -0.00001388    -0.00000016  0.86D-07  0.29D-07  6  1     9.48
   8      1.19233899    -0.63899705  -184.40016408    -0.00000721    -0.00000002  0.98D-08  0.51D-08  6  2     9.78
   9      1.19234944    -0.63899630  -184.40016332     0.00000076    -0.00000000  0.56D-09  0.11D-08  6  4    10.08
  10      1.19235135    -0.63899690  -184.40016393    -0.00000060    -0.00000000  0.10D-09  0.11D-09  6  3    10.40
  11      1.19235211    -0.63899687  -184.40016389     0.00000004    -0.00000000  0.67D-11  0.20D-10  6  5    10.72
  12      1.19235138    -0.63899641  -184.40016343     0.00000046    -0.00000000  0.15D-11  0.27D-11  6  6    11.04
  13      1.19235111    -0.63899639  -184.40016341     0.00000002    -0.00000000  0.25D-12  0.22D-12  6  2    11.36
  14      1.19235093    -0.63899629  -184.40016331     0.00000010    -0.00000000  0.10D-13  0.15D-13  6  1    11.68
  15      1.19235090    -0.63899628  -184.40016331     0.00000000    -0.00000000  0.56D-14  0.16D-14  6  2    12.00
  16      1.19235088    -0.63899628  -184.40016330     0.00000001    -0.00000000  0.26D-15  0.19D-15  6  4    12.32
  17      1.19235088    -0.63899628  -184.40016330     0.00000000    -0.00000000  0.28D-16  0.15D-16  6  3    12.63
  18      1.19235088    -0.63899628  -184.40016330    -0.00000000    -0.00000000  0.26D-17  0.22D-17  6  5    12.95
  19      1.19235088    -0.63899628  -184.40016330     0.00000000    -0.00000000  0.33D-18  0.34D-18  6  6    13.25

 Norm of t1 vector:      0.11261957      S-energy:    -0.00000000      T1 diagnostic:  0.01990852
                                                                       D1 diagnostic:  0.04643059
 Norm of t2 vector:      0.42387228      P-energy:    -0.63899628
                                         Alpha-Beta:  -0.48974327
                                         Alpha-Alpha: -0.07462650
                                         Beta-Beta:   -0.07462650

 Spin contamination <S**2-Sz**2-Sz>     0.00000000

 Memory could be reduced to 15.06 Mwords without degradation in triples
 

 RESULTS
 =======

  Reference energy                   -183.761167025005
  CABS relaxation correction to RHF    -0.001369968085
  New reference energy               -183.762536993090
 
  F12 corrections for ansatz 3C(FIX) added to UCCSD energy. Coupling mode: 15
 
  UCCSD-F12b singles energy            -0.000000000002
  UCCSD-F12b pair energy               -0.681923695660
  UCCSD-F12b correlation energy        -0.681923695662
  Triples (T) contribution             -0.037627418339
  Total correlation energy             -0.719551114001
 
  RHF-UCCSD-F12b energy              -184.444460688752
  RHF-UCCSD[T]-F12b energy           -184.484878412235
  RHF-UCCSD-T-F12b energy            -184.481176752397
 !RHF-UCCSD(T)-F12b energy           -184.482088107091

 Program statistics:

 Available memory in ccsd:               849998203
 Min. memory needed in ccsd:               1619417
 Max. memory used in ccsd:                 2249321
 Max. memory used in cckext:               1946278 (20 integral passes)
 Max. memory used in cckint:               1514071 ( 1 integral passes)



 **********************************************************************************************************************************
 DATASETS  * FILE   NREC   LENGTH (MB)   RECORD NAMES
              1      19       19.85       500      610      700      900      950      970     1000      129      960     1100   
                                          VAR    BASINP    GEOM    SYMINP    ZMAT    AOBASIS   BASIS     P2S    ABASIS      S 
                                         1400     1410     1200     1210     1080     1600     1650     1700     2100   
                                           T        V       H0       H01     AOSYM     SMH    MOLCAS    OPER      RHF  

              2       6        0.74       700     1000      520     2100     7360     5600   
                                         GEOM     BASIS   MCVARS     RHF    F12ABS    GINFO   

 PROGRAMS   *        TOTAL      F12B      F12B       RHF       INT
 CPU TIMES  *        39.22     17.80     17.83      0.33      1.37
 REAL TIME  *        44.91 SEC
 DISK USED  *       964.82 MB      
 SF USED    *       772.34 MB      
 GA USED    *         2.47 MB       (max)       0.00 MB       (current)
 **********************************************************************************************************************************
 Starting task   2 Incrementing variable R2       by  -0.00529 ANG to    1.12281 ANG. CPU=   22.30 sec, Elapsed=   22.16 sec


 Recomputing integrals since geometry changed

1PROGRAM * SEWARD (Integral evaluation for generally contracted gaussian basis sets)     Author: Roland Lindh, 1990

 Geometry written to block  1 of record 700

 Orientation using atomic masses  
 Molecule type: Linear
 Symmetry elements: X,Y
 Rotational constants:      12.6501145     12.6501145      0.0000000 GHz  (calculated with average atomic masses)

 Point group  C2v 



 ATOMIC COORDINATES

 NR  ATOM    CHARGE       X              Y              Z

   1  N       7.00    0.000000000    0.000000000    0.140002022
   2  N       7.00    0.000000000    0.000000000    2.261804293
   3  O       8.00    0.000000000    0.000000000   -2.102665132

 Bond lengths in Bohr (Angstrom)

 1-2  2.121802271  1-3  2.242667155
     ( 1.122809408)     ( 1.186768350)

 Bond angles

  2-1-3  180.00000000

 NUCLEAR CHARGE:                   22
 NUMBER OF PRIMITIVE AOS:         216
 NUMBER OF SYMMETRY AOS:          189
 NUMBER OF CONTRACTIONS:          159   (  66A1  +  39B1  +  39B2  +  15A2  )
 NUMBER OF CORE ORBITALS:           3   (   3A1  +   0B1  +   0B2  +   0A2  )
 NUMBER OF VALENCE ORBITALS:       12   (   6A1  +   3B1  +   3B2  +   0A2  )


 NUCLEAR REPULSION ENERGY   60.89472689

 EXTRA SYMMETRY OF AOS IN SYMMETRY 1:   1 1 1 1 1 1 1 1 1 1   1 1 1 2 1 2 1 2 1 2   1 2 1 1 1 1 1 1 1 1   1 1 1 1 1 2 1 2 1 2
                                        1 2 1 2 1 1 1 1 1 1   1 1 1 1 1 1 1 2 1 2   1 2 1 2 1 2
 EXTRA SYMMETRY OF AOS IN SYMMETRY 2:   1 1 1 1 1 1 1 1 1 1   2 1 2 1 1 1 1 1 1 1   1 1 1 2 1 2 1 1 1 1   1 1 1 1 1 1 2 1 2
 EXTRA SYMMETRY OF AOS IN SYMMETRY 3:   1 1 1 1 1 1 1 1 1 1   2 1 2 1 1 1 1 1 1 1   1 1 1 2 1 2 1 1 1 1   1 1 1 1 1 1 2 1 2

 Eigenvalues of metric

         1 0.670E-04 0.167E-03 0.212E-03 0.272E-03 0.511E-03 0.529E-03 0.570E-03 0.652E-03
         2 0.492E-03 0.576E-03 0.684E-03 0.216E-02 0.450E-02 0.851E-02 0.336E-01 0.512E-01
         3 0.492E-03 0.576E-03 0.684E-03 0.216E-02 0.450E-02 0.851E-02 0.336E-01 0.512E-01
         4 0.384E-01 0.904E-01 0.219E+00 0.239E+00 0.266E+00 0.469E+00 0.580E+00 0.670E+00


 Contracted 2-electron integrals neglected if value below      1.0D-14
 AO integral compression algorithm  1   Integral accuracy      1.0D-14

     161.481 MB (compressed) written to integral file ( 76.4%)

     Node minimum: 20.447 MB, node maximum: 25.166 MB


 NUMBER OF SORTED TWO-ELECTRON INTEGRALS:    3009720.     BUFFER LENGTH:  32768
 NUMBER OF SEGMENTS:   1  SEGMENT LENGTH:    3009720      RECORD LENGTH: 524288

 Memory used in sort:       3.57 MW

 SORT1 READ    26492611. AND WROTE     2417997. INTEGRALS IN      7 RECORDS. CPU TIME:     0.56 SEC, REAL TIME:     0.59 SEC
 SORT2 READ    17129388. AND WROTE    21109416. INTEGRALS IN    672 RECORDS. CPU TIME:     0.09 SEC, REAL TIME:     0.11 SEC

 Node minimum:     3002545.  Node maximum:     3037197. integrals

 OPERATOR DM      FOR CENTER  0  COORDINATES:    0.000000    0.000000    0.000000
1PROGRAM * RHF-SCF (CLOSED SHELL)       Authors: W. Meyer, H.-J. Werner


 NUMBER OF ELECTRONS:      11+   11-    SPACE SYMMETRY=1    SPIN SYMMETRY: Singlet 
 CONVERGENCE THRESHOLDS:    1.00E-10 (Density)    1.00E-11 (Energy)
 MAX. NUMBER OF ITERATIONS:      300
 INTERPOLATION TYPE:            DIIS
 INTERPOLATION STEPS:              2 (START)      1 (STEP)
 LEVEL SHIFTS:                  0.00 (CLOSED)  0.00 (OPEN) 

 Number of closed-shell orbitals:   11 (   7   2   2   0 )


 Molecular orbitals read from record     2100.2  Type=RHF/CANONICAL (state 1.1)

 Molecular orbital dump at record        2100.1

 ITERATION    DDIFF          GRAD             ENERGY        2-EL.EN.            DIPOLE MOMENTS         DIIS   ORB.
    1      0.000D+00      0.000D+00      -183.76383320    252.162690    0.00000    0.00000    0.25613    0    start
    2      0.000D+00      0.268D-03      -183.76386026    252.221984    0.00000    0.00000    0.25921    1    diag
    3      0.365D-03      0.788D-04      -183.76386309    252.207154    0.00000    0.00000    0.26341    2    diag
    4      0.760D-04      0.385D-04      -183.76386383    252.206428    0.00000    0.00000    0.26210    3    diag
    5      0.345D-04      0.134D-04      -183.76386396    252.208932    0.00000    0.00000    0.26317    4    diag
    6      0.146D-04      0.507D-05      -183.76386398    252.208021    0.00000    0.00000    0.26295    5    diag
    7      0.651D-05      0.231D-05      -183.76386398    252.208308    0.00000    0.00000    0.26321    6    diag
    8      0.280D-05      0.955D-06      -183.76386398    252.208314    0.00000    0.00000    0.26317    7    orth
    9      0.124D-05      0.129D-06      -183.76386398    252.208313    0.00000    0.00000    0.26317    8    diag
   10      0.236D-06      0.281D-07      -183.76386398    252.208315    0.00000    0.00000    0.26317    9    diag
   11      0.540D-07      0.610D-08      -183.76386398    252.208315    0.00000    0.00000    0.26317    9    diag
   12      0.114D-07      0.892D-09      -183.76386398    252.208315    0.00000    0.00000    0.26317    9    diag
   13      0.183D-08      0.102D-09      -183.76386398    252.208315    0.00000    0.00000    0.26317    9    diag
   14      0.277D-09      0.159D-10      -183.76386398    252.208315    0.00000    0.00000    0.26317    9    diag
   15      0.221D-10      0.400D-11      -183.76386398    252.208315    0.00000    0.00000    0.26317    0    orth

 Final occupancy:   7   2   2   0

 !RHF STATE 1.1 Energy               -183.763863984702
 Nuclear energy                        60.89472689
 One-electron energy                 -370.76274833
 Two-electron energy                  126.10415746
 Virial quotient                       -1.00188607
 !RHF STATE 1.1 Dipole moment           0.00000000     0.00000000     0.26317417
 Dipole moment /Debye                   0.00000000     0.00000000     0.66887820

 Orbital energies:

         1.1          2.1          3.1          4.1          5.1          6.1          7.1          8.1          9.1
    -20.654180   -15.842972   -15.697394    -1.612548    -1.425980    -0.832512    -0.699394     0.066513     0.079913

         1.2          2.2          3.2          4.2
     -0.763484    -0.492634     0.095270     0.137928

         1.3          2.3          3.3          4.3
     -0.763484    -0.492634     0.095270     0.137928

         1.4          2.4
      0.755445     1.027508

 HOMO      2.2    -0.492634 =     -13.4052eV
 LUMO      8.1     0.066513 =       1.8099eV
 LUMO-HOMO         0.559146 =      15.2151eV


 **********************************************************************************************************************************
 DATASETS  * FILE   NREC   LENGTH (MB)   RECORD NAMES
              1      19       19.85       500      610      700      900      950      970     1000      129      960     1100   
                                          VAR    BASINP    GEOM    SYMINP    ZMAT    AOBASIS   BASIS     P2S    ABASIS      S 
                                         1400     1410     1200     1210     1080     1600     1650     1700     2100   
                                           T        V       H0       H01     AOSYM     SMH    MOLCAS    OPER      RHF  

              2       6        0.74       700     1000      520     2100     7360     5600   
                                         GEOM     BASIS   MCVARS     RHF    F12ABS    GINFO   

 PROGRAMS   *        TOTAL       RHF      F12B       RHF       INT
 CPU TIMES  *        40.98      1.76     17.83      0.33      1.37
 REAL TIME  *        46.80 SEC
 DISK USED  *       967.08 MB      
 SF USED    *       772.34 MB      
 GA USED    *         2.47 MB       (max)       0.00 MB       (current)
 **********************************************************************************************************************************


1PROGRAM * CCSD (Unrestricted open-shell coupled cluster)     Authors: C. Hampel, H.-J. Werner, 1991, M. Deegan, P.J. Knowles, 1992

                           UCCSD-F12 implementation by G. Knizia and H.-J. Werner, 2008

                   Density fitting integral evaluation by F.R. Manby, 2003,2007, G. Knizia, 2010

 Basis set AUG-CC-PVTZ/JKFIT generated.  Number of basis functions:   312 
 Basis set CC-PVTZ-F12/OPTRI generated.  Number of basis functions:   225 
 Basis set AUG-CC-PVTZ/MP2FIT generated. Number of basis functions:   318 

 Convergence thresholds:  THRVAR = 1.00D-14  THRDEN = 1.00D-10

 CCSD(T)     terms to be evaluated (factor= 1.000)


 Number of core orbitals:           3 (   3   0   0   0 )
 Number of closed-shell orbitals:   8 (   4   2   2   0 )
 Number of external orbitals:     148 (  59  37  37  15 )

 Memory could be reduced to 15.02 Mwords without degradation in triples

 Number of N-1 electron functions:              16
 Number of N-2 electron functions:             120
 Number of singly external CSFs:               768
 Number of doubly external CSFs:            524688
 Total number of CSFs:                      525456

 Molecular orbitals read from record     2100.1  Type=RHF/CANONICAL (state 1.1)

 Integral transformation finished. Total CPU:   0.27 sec, npass=  1  Memory used:   1.51 MW
 
 Geminal basis:    OPTFULL  GEM_TYPE=SLATER  BETA=1.0  NGEM=6

 Optimizing Gaussian exponents for each gem_beta

 Geminal optimization for beta= 1.0000
 Weight function:   m=0, omega= 1.4646

 Augmented Hessian optimization of geminal fit. Trust ratio= 0.40000
 Convergence reached after   2 iterations. Final gradient= 8.24D-16, Step= 4.32D-06, Delta= 1.28D-09
 
 Alpha:                 0.19532     0.81920     2.85917     9.50073    35.69989   197.79328
 Coeff:                 0.27070     0.30552     0.18297     0.10986     0.06810     0.04224
 
 
 WFN_F12=FIX,EG    DECOUPLE_EXPL=F   HYBRID=0    NOX=F   SEMIINT_F12=T   CORE_SINGLES=F
 
 AO(A)-basis ORBITAL           loaded. Number of functions:     159
 RI(R)-basis CC-PVTZ-F12/OPTRI loaded. Number of functions:     225
 DF-basis AUG-CC-PVTZ/JKFIT    loaded. Number of functions:     312

 Screening thresholds:   THRAO=  1.00D-11  THRMO=  1.00D-11  THRPROD=  1.00D-11
                         THRSW=  1.00D-08  THROV=  1.00D-12  THRAOF12=   1.00D-08

 CPU time for one-electron matrices               2.82 sec
 
 Reading frozen CA basis information from record 7360.2.
 
 Construction of ABS:
 Pseudo-inverse stability          4.43E-12
 Smallest eigenvalue of S          1.28E-04  (threshold= 1.00E-08)
 Ratio eigmin/eigmax               2.16E-05  (threshold= 1.00E-09)
 Smallest eigenvalue of S kept     1.28E-04  (threshold= 1.28E-04, 0 functions deleted, 225 kept)
 
 Construction of CABS:
 Pseudo-inverse stability          1.83E-10
 Smallest eigenvalue of S          4.27E-07  (threshold= 1.00E-08)
 Ratio eigmin/eigmax               4.27E-07  (threshold= 1.00E-09)
 Smallest eigenvalue of S kept     4.27E-07  (threshold= 4.27E-07, 0 functions deleted, 225 kept)
 
 CPU time for basis constructions                 0.25 sec
 Fock operators(MO) rebuilt from dump record.
 CPU time for fock operators                      0.05 sec
 
                                      TOTAL          ALPHA          BETA    
  Singles Contributions MO        -0.000000000   -0.000000000   -0.000000000
  Singles Contributions CABS      -0.001376676   -0.000688338   -0.000688338
  Pure DF-RHF relaxation          -0.001376676
 
 CPU time for singles                             0.10 sec
 
 AO(A)-basis ORBITAL           loaded. Number of functions:     159
 RI(R)-basis CC-PVTZ-F12/OPTRI loaded. Number of functions:     225
 DF-basis AUG-CC-PVTZ/MP2FIT   loaded. Number of functions:     318

 Screening thresholds:   THRAO=  1.00D-11  THRMO=  1.00D-11  THRPROD=  1.00D-11
                         THRSW=  1.00D-08  THROV=  1.00D-12  THRAOF12=   1.00D-08

 CPU time for transformed integrals               2.97 sec
 CPU time for F12 matrices                        0.51 sec

 Diagonal F12 ansatz with fixed amplitudes:   TS= 0.5000  TT= 0.2500  TN= 0.3750
 
 ITER.     SQ.NORM      CORR.ENERGY   TOTAL ENERGY  ENERGY CHANGE      VAR         CPU   MICRO    DIIS
   1      1.19815776    -0.72091949  -184.48616015    -7.2230E-01   1.98E-01      0.02  1  1  1   0  0
   2      1.19815776    -0.72091949  -184.48616015    -1.7097E-14   3.84E-27      0.04  0  0  0   0  0
 
 - - Continuing with F12/conv. amplitude coupling turned on.
 
   3      1.19809254    -0.72103327  -184.48627393    -1.1378E-04   4.64E-05      0.08  1  1  1   1  1
   4      1.19809254    -0.72103327  -184.48627393    -1.1102E-16   4.07E-28      0.11  1  1  1   0  1
 
 CPU time for iterative RMP2-F12                  0.11 sec
 
 
 DF-RMP2-F12 doubles corrections:
 - - - - - - - - - - - - - - - - 
  Approx.                             TOTAL           A-B            A-A            B-B    
  RMP2-F12/3C(FIX)                -0.052590968   -0.048532261   -0.002029353   -0.002029353
  RMP2-F12/3*C(FIX)               -0.052477192   -0.048561656   -0.001957768   -0.001957768
  RMP2-F12/3*C(DX)                -0.052726336   -0.048782506   -0.001971915   -0.001971915
  RMP2-F12/3*C(FIX,DX)            -0.056159345   -0.051900513   -0.002129416   -0.002129416
 
 DF-RMP2-F12 doubles energies:
 - - - - - - - - - - - - - - -
  Approx.                             TOTAL           A-B            A-A            B-B    
  RMP2                            -0.668442302   -0.489409313   -0.089516494   -0.089516494
  RMP2-F12/3C(FIX)                -0.721033270   -0.537941575   -0.091545847   -0.091545847
  RMP2-F12/3*C(FIX)               -0.720919494   -0.537970970   -0.091474262   -0.091474262
  RMP2-F12/3*C(DX)                -0.721168637   -0.538191820   -0.091488409   -0.091488409
  RMP2-F12/3*C(FIX,DX)            -0.724601647   -0.541309826   -0.091645910   -0.091645910
 
 
  Reference energy                   -183.763863984702
  CABS relaxation correction to RHF    -0.001376675630
  New reference energy               -183.765240660332
 
  RMP2-F12 singles (MO) energy         -0.000000000000
  RMP2-F12 pair energy                 -0.721033269774
  RMP2-F12 correlation energy          -0.721033269774
 
  RMP2-F12/3C(FIX) energy            -184.486273930106

 Starting RMP2 calculation

 ITER.      SQ.NORM     CORR.ENERGY   TOTAL ENERGY   ENERGY CHANGE        DEN1      VAR(S)    VAR(P)  DIIS     TIME
   1      1.19542961    -0.66573392  -184.42959790    -0.66573392    -0.00247114  0.84D-22  0.11D-02  1  1     7.31
   2      1.19806040    -0.66839622  -184.43226021    -0.00266231    -0.00000407  0.10D-23  0.23D-05  2  2     7.34
   3      1.19815354    -0.66845049  -184.43231447    -0.00005427    -0.00000001  0.10D-25  0.29D-08  3  3     7.38
   4      1.19815469    -0.66845072  -184.43231471    -0.00000024    -0.00000000  0.13D-27  0.28D-11  4  4     7.42
   5      1.19815470    -0.66845073  -184.43231471    -0.00000000    -0.00000000  0.19D-29  0.38D-14  5  5     7.47
   6      1.19815470    -0.66845073  -184.43231471     0.00000000    -0.00000000  0.28D-31  0.77D-17  6  6     7.52

 Norm of t1 vector:      0.00000000      S-energy:    -0.00000000      T1 diagnostic:  0.00000000
 Norm of t2 vector:      0.44514571      P-energy:    -0.66845073
                                         Alpha-Beta:  -0.48963072
                                         Alpha-Alpha: -0.08941000
                                         Beta-Beta:   -0.08941000

 Spin contamination <S**2-Sz**2-Sz>     0.00000000
  Reference energy                   -183.765240660332
  RHF-RMP2 correlation energy          -0.668450725238
 !RHF-RMP2 energy                    -184.433691385570

 Starting UCCSD calculation

 ITER.      SQ.NORM     CORR.ENERGY   TOTAL ENERGY   ENERGY CHANGE        DEN1      VAR(S)    VAR(P)  DIIS     TIME
   1      1.16313527    -0.61298893  -184.37685291    -0.61298893    -0.02542888  0.71D-02  0.42D-02  1  1     7.80
   2      1.17828727    -0.63309937  -184.39696335    -0.02011044    -0.00246707  0.13D-03  0.85D-03  2  2     8.09
   3      1.18359427    -0.63433117  -184.39819515    -0.00123180    -0.00042902  0.23D-03  0.78D-04  3  3     8.38
   4      1.18749821    -0.63613332  -184.39999731    -0.00180216    -0.00006489  0.20D-04  0.16D-04  4  4     8.70
   5      1.18950012    -0.63674543  -184.40060941    -0.00061211    -0.00000907  0.51D-05  0.16D-05  5  5     9.00
   6      1.19002594    -0.63679297  -184.40065696    -0.00004754    -0.00000107  0.45D-06  0.20D-06  6  6     9.32
   7      1.19017784    -0.63680691  -184.40067089    -0.00001393    -0.00000016  0.82D-07  0.28D-07  6  1     9.64
   8      1.19020295    -0.63681385  -184.40067783    -0.00000694    -0.00000002  0.90D-08  0.49D-08  6  2     9.95
   9      1.19021302    -0.63681314  -184.40067712     0.00000071    -0.00000000  0.52D-09  0.98D-09  6  4    10.26
  10      1.19021475    -0.63681370  -184.40067769    -0.00000057    -0.00000000  0.90D-10  0.96D-10  6  3    10.58
  11      1.19021546    -0.63681366  -184.40067764     0.00000005    -0.00000000  0.66D-11  0.17D-10  6  5    10.90
  12      1.19021478    -0.63681324  -184.40067722     0.00000042    -0.00000000  0.13D-11  0.23D-11  6  6    11.22
  13      1.19021452    -0.63681321  -184.40067720     0.00000003    -0.00000000  0.23D-12  0.19D-12  6  2    11.53
  14      1.19021435    -0.63681312  -184.40067710     0.00000009    -0.00000000  0.97D-14  0.13D-13  6  1    11.84
  15      1.19021432    -0.63681312  -184.40067710     0.00000000    -0.00000000  0.50D-14  0.13D-14  6  2    12.15
  16      1.19021430    -0.63681311  -184.40067710     0.00000001    -0.00000000  0.22D-15  0.16D-15  6  4    12.47
  17      1.19021430    -0.63681311  -184.40067709     0.00000000    -0.00000000  0.23D-16  0.13D-16  6  3    12.80
  18      1.19021430    -0.63681311  -184.40067709    -0.00000000    -0.00000000  0.22D-17  0.19D-17  6  5    13.12
  19      1.19021430    -0.63681311  -184.40067709     0.00000000    -0.00000000  0.25D-18  0.28D-18  6  6    13.45

 Norm of t1 vector:      0.11160270      S-energy:     0.00000000      T1 diagnostic:  0.01972876
                                                                       D1 diagnostic:  0.04624247
 Norm of t2 vector:      0.42161491      P-energy:    -0.63681311
                                         Alpha-Beta:  -0.48797008
                                         Alpha-Alpha: -0.07442152
                                         Beta-Beta:   -0.07442152

 Spin contamination <S**2-Sz**2-Sz>     0.00000000

 Memory could be reduced to 15.06 Mwords without degradation in triples
 

 RESULTS
 =======

  Reference energy                   -183.763863984702
  CABS relaxation correction to RHF    -0.001376675630
  New reference energy               -183.765240660332
 
  F12 corrections for ansatz 3C(FIX) added to UCCSD energy. Coupling mode: 15
 
  UCCSD-F12b singles energy             0.000000000002
  UCCSD-F12b pair energy               -0.679835542358
  UCCSD-F12b correlation energy        -0.679835542356
  Triples (T) contribution             -0.037011904230
  Total correlation energy             -0.716847446586
 
  RHF-UCCSD-F12b energy              -184.445076202688
  RHF-UCCSD[T]-F12b energy           -184.484803514506
  RHF-UCCSD-T-F12b energy            -184.481197947937
 !RHF-UCCSD(T)-F12b energy           -184.482088106918

 Program statistics:

 Available memory in ccsd:               849998203
 Min. memory needed in ccsd:               1619417
 Max. memory used in ccsd:                 2249321
 Max. memory used in cckext:               1946278 (20 integral passes)
 Max. memory used in cckint:               1514071 ( 1 integral passes)



 **********************************************************************************************************************************
 DATASETS  * FILE   NREC   LENGTH (MB)   RECORD NAMES
              1      19       19.85       500      610      700      900      950      970     1000      129      960     1100   
                                          VAR    BASINP    GEOM    SYMINP    ZMAT    AOBASIS   BASIS     P2S    ABASIS      S 
                                         1400     1410     1200     1210     1080     1600     1650     1700     2100   
                                           T        V       H0       H01     AOSYM     SMH    MOLCAS    OPER      RHF  

              2       6        0.74       700     1000      520     2100     7360     5600   
                                         GEOM     BASIS   MCVARS     RHF    F12ABS    GINFO   

 PROGRAMS   *        TOTAL      F12B      F12B       RHF       INT
 CPU TIMES  *        59.14     18.15     17.83      0.33      1.37
 REAL TIME  *        67.33 SEC
 DISK USED  *       967.08 MB      
 SF USED    *       772.34 MB      
 GA USED    *         2.47 MB       (max)       0.00 MB       (current)
 **********************************************************************************************************************************
 Starting task   3 Incrementing variable R3       by   0.00529 ANG to    1.19206 ANG. CPU=   44.89 sec, Elapsed=   44.58 sec


 Recomputing integrals since geometry changed

1PROGRAM * SEWARD (Integral evaluation for generally contracted gaussian basis sets)     Author: Roland Lindh, 1990

 Geometry written to block  1 of record 700

 Orientation using atomic masses  
 Molecule type: Linear
 Symmetry elements: X,Y
 Rotational constants:      12.5350643     12.5350643      0.0000000 GHz  (calculated with average atomic masses)

 Point group  C2v 



 ATOMIC COORDINATES

 NR  ATOM    CHARGE       X              Y              Z

   1  N       7.00    0.000000000    0.000000000    0.140454777
   2  N       7.00    0.000000000    0.000000000    2.272257048
   3  O       8.00    0.000000000    0.000000000   -2.112212378

 Bond lengths in Bohr (Angstrom)

 1-2  2.131802271  1-3  2.252667155
     ( 1.128101180)     ( 1.192060122)

 Bond angles

  2-1-3  179.99999852

 NUCLEAR CHARGE:                   22
 NUMBER OF PRIMITIVE AOS:         216
 NUMBER OF SYMMETRY AOS:          189
 NUMBER OF CONTRACTIONS:          159   (  66A1  +  39B1  +  39B2  +  15A2  )
 NUMBER OF CORE ORBITALS:           3   (   3A1  +   0B1  +   0B2  +   0A2  )
 NUMBER OF VALENCE ORBITALS:       12   (   6A1  +   3B1  +   3B2  +   0A2  )


 NUCLEAR REPULSION ENERGY   60.61702166

 EXTRA SYMMETRY OF AOS IN SYMMETRY 1:   1 1 1 1 1 1 1 1 1 1   1 1 1 2 1 2 1 2 1 2   1 2 1 1 1 1 1 1 1 1   1 1 1 1 1 2 1 2 1 2
                                        1 2 1 2 1 1 1 1 1 1   1 1 1 1 1 1 1 2 1 2   1 2 1 2 1 2
 EXTRA SYMMETRY OF AOS IN SYMMETRY 2:   1 1 1 1 1 1 1 1 1 1   2 1 2 1 1 1 1 1 1 1   1 1 1 2 1 2 1 1 1 1   1 1 1 1 1 1 2 1 2
 EXTRA SYMMETRY OF AOS IN SYMMETRY 3:   1 1 1 1 1 1 1 1 1 1   2 1 2 1 1 1 1 1 1 1   1 1 1 2 1 2 1 1 1 1   1 1 1 1 1 1 2 1 2

 Eigenvalues of metric

         1 0.687E-04 0.171E-03 0.216E-03 0.279E-03 0.513E-03 0.530E-03 0.570E-03 0.654E-03
         2 0.494E-03 0.576E-03 0.684E-03 0.221E-02 0.458E-02 0.864E-02 0.341E-01 0.516E-01
         3 0.494E-03 0.576E-03 0.684E-03 0.221E-02 0.458E-02 0.864E-02 0.341E-01 0.516E-01
         4 0.394E-01 0.919E-01 0.219E+00 0.239E+00 0.268E+00 0.470E+00 0.582E+00 0.673E+00


 Contracted 2-electron integrals neglected if value below      1.0D-14
 AO integral compression algorithm  1   Integral accuracy      1.0D-14

     161.481 MB (compressed) written to integral file ( 76.1%)

     Node minimum: 22.544 MB, node maximum: 23.855 MB


 NUMBER OF SORTED TWO-ELECTRON INTEGRALS:    3009720.     BUFFER LENGTH:  32768
 NUMBER OF SEGMENTS:   1  SEGMENT LENGTH:    3009720      RECORD LENGTH: 524288

 Memory used in sort:       3.57 MW

 SORT1 READ    26492611. AND WROTE     2417473. INTEGRALS IN      7 RECORDS. CPU TIME:     0.58 SEC, REAL TIME:     0.60 SEC
 SORT2 READ    17124858. AND WROTE    21109416. INTEGRALS IN    602 RECORDS. CPU TIME:     0.09 SEC, REAL TIME:     0.11 SEC

 Node minimum:     3002545.  Node maximum:     3037197. integrals

 OPERATOR DM      FOR CENTER  0  COORDINATES:    0.000000    0.000000    0.000000
1PROGRAM * RHF-SCF (CLOSED SHELL)       Authors: W. Meyer, H.-J. Werner


 NUMBER OF ELECTRONS:      11+   11-    SPACE SYMMETRY=1    SPIN SYMMETRY: Singlet 
 CONVERGENCE THRESHOLDS:    1.00E-10 (Density)    1.00E-11 (Energy)
 MAX. NUMBER OF ITERATIONS:      300
 INTERPOLATION TYPE:            DIIS
 INTERPOLATION STEPS:              2 (START)      1 (STEP)
 LEVEL SHIFTS:                  0.00 (CLOSED)  0.00 (OPEN) 

 Number of closed-shell orbitals:   11 (   7   2   2   0 )


 Molecular orbitals read from record     2100.2  Type=RHF/CANONICAL (state 1.1)

 Molecular orbital dump at record        2100.1

 ITERATION    DDIFF          GRAD             ENERGY        2-EL.EN.            DIPOLE MOMENTS         DIIS   ORB.
    1      0.000D+00      0.000D+00      -183.76211905    251.706434    0.00000    0.00000    0.26244    0    start
    2      0.000D+00      0.266D-03      -183.76215303    251.669801    0.00000    0.00000    0.26605    1    diag
    3      0.287D-03      0.757D-04      -183.76215751    251.694125    0.00000    0.00000    0.27432    2    diag
    4      0.934D-04      0.575D-04      -183.76215922    251.686250    0.00000    0.00000    0.27026    3    diag
    5      0.487D-04      0.195D-04      -183.76215968    251.687499    0.00000    0.00000    0.27241    4    diag
    6      0.278D-04      0.758D-05      -183.76215974    251.688180    0.00000    0.00000    0.27228    5    diag
    7      0.124D-04      0.126D-05      -183.76215974    251.687942    0.00000    0.00000    0.27228    6    diag
    8      0.199D-05      0.336D-06      -183.76215974    251.687946    0.00000    0.00000    0.27226    7    orth
    9      0.382D-06      0.143D-06      -183.76215974    251.687948    0.00000    0.00000    0.27226    8    diag
   10      0.132D-06      0.205D-07      -183.76215974    251.687947    0.00000    0.00000    0.27226    9    diag
   11      0.295D-07      0.481D-08      -183.76215974    251.687947    0.00000    0.00000    0.27226    9    diag
   12      0.772D-08      0.915D-09      -183.76215974    251.687947    0.00000    0.00000    0.27226    9    diag
   13      0.131D-08      0.159D-09      -183.76215974    251.687947    0.00000    0.00000    0.27226    9    diag
   14      0.267D-09      0.175D-10      -183.76215974    251.687947    0.00000    0.00000    0.27226    9    diag
   15      0.381D-10      0.783D-11      -183.76215974    251.687947    0.00000    0.00000    0.27226    0    orth

 Final occupancy:   7   2   2   0

 !RHF STATE 1.1 Energy               -183.762159737763
 Nuclear energy                        60.61702166
 One-electron energy                 -370.22315502
 Two-electron energy                  125.84397362
 Virial quotient                       -1.00214943
 !RHF STATE 1.1 Dipole moment           0.00000000     0.00000000     0.27226363
 Dipole moment /Debye                   0.00000000     0.00000000     0.69197981

 Orbital energies:

         1.1          2.1          3.1          4.1          5.1          6.1          7.1          8.1          9.1
    -20.654869   -15.844105   -15.700239    -1.607926    -1.422211    -0.832884    -0.699907     0.066541     0.079908

         1.2          2.2          3.2          4.2
     -0.760353    -0.492378     0.094871     0.137104

         1.3          2.3          3.3          4.3
     -0.760353    -0.492378     0.094871     0.137104

         1.4          2.4
      0.755777     1.027154

 HOMO      2.2    -0.492378 =     -13.3983eV
 LUMO      8.1     0.066541 =       1.8107eV
 LUMO-HOMO         0.558919 =      15.2090eV


 **********************************************************************************************************************************
 DATASETS  * FILE   NREC   LENGTH (MB)   RECORD NAMES
              1      19       19.85       500      610      700      900      950      970     1000      129      960     1100   
                                          VAR    BASINP    GEOM    SYMINP    ZMAT    AOBASIS   BASIS     P2S    ABASIS      S 
                                         1400     1410     1200     1210     1080     1600     1650     1700     2100   
                                           T        V       H0       H01     AOSYM     SMH    MOLCAS    OPER      RHF  

              2       6        0.74       700     1000      520     2100     7360     5600   
                                         GEOM     BASIS   MCVARS     RHF    F12ABS    GINFO   

 PROGRAMS   *        TOTAL       RHF      F12B       RHF       INT
 CPU TIMES  *        60.97      1.83     17.83      0.33      1.37
 REAL TIME  *        69.31 SEC
 DISK USED  *       967.86 MB      
 SF USED    *       772.34 MB      
 GA USED    *         2.47 MB       (max)       0.00 MB       (current)
 **********************************************************************************************************************************


1PROGRAM * CCSD (Unrestricted open-shell coupled cluster)     Authors: C. Hampel, H.-J. Werner, 1991, M. Deegan, P.J. Knowles, 1992

                           UCCSD-F12 implementation by G. Knizia and H.-J. Werner, 2008

                   Density fitting integral evaluation by F.R. Manby, 2003,2007, G. Knizia, 2010

 Basis set AUG-CC-PVTZ/JKFIT generated.  Number of basis functions:   312 
 Basis set CC-PVTZ-F12/OPTRI generated.  Number of basis functions:   225 
 Basis set AUG-CC-PVTZ/MP2FIT generated. Number of basis functions:   318 

 Convergence thresholds:  THRVAR = 1.00D-14  THRDEN = 1.00D-10

 CCSD(T)     terms to be evaluated (factor= 1.000)


 Number of core orbitals:           3 (   3   0   0   0 )
 Number of closed-shell orbitals:   8 (   4   2   2   0 )
 Number of external orbitals:     148 (  59  37  37  15 )

 Memory could be reduced to 15.02 Mwords without degradation in triples

 Number of N-1 electron functions:              16
 Number of N-2 electron functions:             120
 Number of singly external CSFs:               768
 Number of doubly external CSFs:            524688
 Total number of CSFs:                      525456

 Molecular orbitals read from record     2100.1  Type=RHF/CANONICAL (state 1.1)

 Integral transformation finished. Total CPU:   0.28 sec, npass=  1  Memory used:   1.51 MW
 
 Geminal basis:    OPTFULL  GEM_TYPE=SLATER  BETA=1.0  NGEM=6

 Optimizing Gaussian exponents for each gem_beta

 Geminal optimization for beta= 1.0000
 Weight function:   m=0, omega= 1.4646

 Augmented Hessian optimization of geminal fit. Trust ratio= 0.40000
 Convergence reached after   2 iterations. Final gradient= 8.24D-16, Step= 4.32D-06, Delta= 1.28D-09
 
 Alpha:                 0.19532     0.81920     2.85917     9.50073    35.69989   197.79328
 Coeff:                 0.27070     0.30552     0.18297     0.10986     0.06810     0.04224
 
 
 WFN_F12=FIX,EG    DECOUPLE_EXPL=F   HYBRID=0    NOX=F   SEMIINT_F12=T   CORE_SINGLES=F
 
 AO(A)-basis ORBITAL           loaded. Number of functions:     159
 RI(R)-basis CC-PVTZ-F12/OPTRI loaded. Number of functions:     225
 DF-basis AUG-CC-PVTZ/JKFIT    loaded. Number of functions:     312

 Screening thresholds:   THRAO=  1.00D-11  THRMO=  1.00D-11  THRPROD=  1.00D-11
                         THRSW=  1.00D-08  THROV=  1.00D-12  THRAOF12=   1.00D-08

 CPU time for one-electron matrices               2.80 sec
 
 Reading frozen CA basis information from record 7360.2.
 
 Construction of ABS:
 Pseudo-inverse stability          1.54E-11
 Smallest eigenvalue of S          1.31E-04  (threshold= 1.00E-08)
 Ratio eigmin/eigmax               2.22E-05  (threshold= 1.00E-09)
[...]
 SORT2 READ    17126945. AND WROTE    21109416. INTEGRALS IN    511 RECORDS. CPU TIME:     0.08 SEC, REAL TIME:     0.10 SEC

 Node minimum:     3002545.  Node maximum:     3037197. integrals

 OPERATOR DM      FOR CENTER  0  COORDINATES:    0.000000    0.000000    0.000000
1PROGRAM * RHF-SCF (CLOSED SHELL)       Authors: W. Meyer, H.-J. Werner


 NUMBER OF ELECTRONS:      11+   11-    SPACE SYMMETRY=1    SPIN SYMMETRY: Singlet 
 CONVERGENCE THRESHOLDS:    1.00E-10 (Density)    1.00E-11 (Energy)
 MAX. NUMBER OF ITERATIONS:      300
 INTERPOLATION TYPE:            DIIS
 INTERPOLATION STEPS:              2 (START)      1 (STEP)
 LEVEL SHIFTS:                  0.00 (CLOSED)  0.00 (OPEN) 



 Molecular orbitals read from record     2100.2  Type=RHF/CANONICAL (state 1.1)

 Molecular orbital dump at record        2100.2

 ITERATION    DDIFF          GRAD             ENERGY        2-EL.EN.            DIPOLE MOMENTS         DIIS   ORB.
    1      0.000D+00      0.000D+00      -183.76257600    251.941510    0.00000    0.00000    0.25440    0    start
    2      0.000D+00      0.377D-10      -183.76257600    251.941510    0.00000    0.00000    0.25440    0    orth

 Final occupancy:   7   2   2   0

 !RHF STATE 1.1 Energy               -183.762576003186
 Nuclear energy                        60.75706655
 One-electron energy                 -370.49039767
 Two-electron energy                  125.97075512
 Virial quotient                       -1.00205382
 !RHF STATE 1.1 Dipole moment           0.00000000     0.00000000     0.25439799
 Dipole moment /Debye                   0.00000000     0.00000000     0.64657286

 Orbital energies:

         1.1          2.1          3.1          4.1          5.1          6.1          7.1          8.1          9.1
    -20.655464   -15.844162   -15.698559    -1.611772    -1.423012    -0.833609    -0.699284     0.066497     0.079932

         1.2          2.2          3.2          4.2
     -0.762285    -0.492007     0.095112     0.137437

         1.3          2.3          3.3          4.3
     -0.762285    -0.492007     0.095112     0.137437

         1.4          2.4
      0.755731     1.027042

 HOMO      2.2    -0.492007 =     -13.3882eV
 LUMO      8.1     0.066497 =       1.8095eV
 LUMO-HOMO         0.558504 =      15.1977eV


 **********************************************************************************************************************************
 DATASETS  * FILE   NREC   LENGTH (MB)   RECORD NAMES
              1      18       19.41       500      610      700      900      950      970     1000      129      960     1100   
                                          VAR    BASINP    GEOM    SYMINP    ZMAT    AOBASIS   BASIS     P2S    ABASIS      S 
                                         1400     1410     1200     1210     1080     1600     1650     1700   
                                           T        V       H0       H01     AOSYM     SMH    MOLCAS    OPER   

              2       9        0.74       700     1000      520     2100     7360     5600     5300     5400     5450   
                                         GEOM     BASIS   MCVARS     RHF    F12ABS    GINFO    HESS     FREQ     NMOD   

 PROGRAMS   *        TOTAL       RHF      OPTG      F12B       RHF       INT
 CPU TIMES  *      2135.11      1.44     98.74     17.83      0.33      1.37
 REAL TIME  *      2433.84 SEC
 DISK USED  *         2.65 GB      
 SF USED    *         1.69 GB      
 GA USED    *         2.47 MB       (max)       0.00 MB       (current)
 **********************************************************************************************************************************


1PROGRAM * CCSD (Unrestricted open-shell coupled cluster)     Authors: C. Hampel, H.-J. Werner, 1991, M. Deegan, P.J. Knowles, 1992

                           UCCSD-F12 implementation by G. Knizia and H.-J. Werner, 2008

                   Density fitting integral evaluation by F.R. Manby, 2003,2007, G. Knizia, 2010

 Basis set AUG-CC-PVTZ/JKFIT generated.  Number of basis functions:   312 
 Basis set CC-PVTZ-F12/OPTRI generated.  Number of basis functions:   225 
 Basis set AUG-CC-PVTZ/MP2FIT generated. Number of basis functions:   318 

 Convergence thresholds:  THRVAR = 1.00D-14  THRDEN = 1.00D-10

 CCSD(T)     terms to be evaluated (factor= 1.000)


 Number of core orbitals:           3 (   3   0   0   0 )
 Number of closed-shell orbitals:   8 (   4   2   2   0 )
 Number of external orbitals:     148 (  59  37  37  15 )

 Memory could be reduced to 16.96 Mwords without degradation in triples

 Number of N-1 electron functions:              16
 Number of N-2 electron functions:             120
 Number of singly external CSFs:               768
 Number of doubly external CSFs:            524688
 Total number of CSFs:                      525456

 Molecular orbitals read from record     2100.2  Type=RHF/CANONICAL (state 1.1)

 Integral transformation finished. Total CPU:   0.28 sec, npass=  1  Memory used:   1.51 MW
 
 Geminal basis:    OPTFULL  GEM_TYPE=SLATER  BETA=1.0  NGEM=6

 Optimizing Gaussian exponents for each gem_beta

 Geminal optimization for beta= 1.0000
 Weight function:   m=0, omega= 1.4646

 Augmented Hessian optimization of geminal fit. Trust ratio= 0.40000
 Convergence reached after   2 iterations. Final gradient= 8.24D-16, Step= 4.32D-06, Delta= 1.28D-09
 
 Alpha:                 0.19532     0.81920     2.85917     9.50073    35.69989   197.79328
 Coeff:                 0.27070     0.30552     0.18297     0.10986     0.06810     0.04224
 
 
 WFN_F12=FIX,EG    DECOUPLE_EXPL=F   HYBRID=0    NOX=F   SEMIINT_F12=T   CORE_SINGLES=F
 
 AO(A)-basis ORBITAL           loaded. Number of functions:     159
 RI(R)-basis CC-PVTZ-F12/OPTRI loaded. Number of functions:     225
 DF-basis AUG-CC-PVTZ/JKFIT    loaded. Number of functions:     312

 Screening thresholds:   THRAO=  1.00D-11  THRMO=  1.00D-11  THRPROD=  1.00D-11
                         THRSW=  1.00D-08  THROV=  1.00D-12  THRAOF12=   1.00D-08

 CPU time for one-electron matrices               2.79 sec
 
 Construction of ABS:
 Pseudo-inverse stability          2.80E-12
 Smallest eigenvalue of S          1.31E-04  (threshold= 1.00E-08)
 Ratio eigmin/eigmax               2.21E-05  (threshold= 1.00E-09)
 Smallest eigenvalue of S kept     1.31E-04  (threshold= 1.31E-04, 0 functions deleted, 225 kept)
 
 Construction of CABS:
 Pseudo-inverse stability          1.79E-10
 Smallest eigenvalue of S          4.32E-07  (threshold= 1.00E-08)
 Ratio eigmin/eigmax               4.32E-07  (threshold= 1.00E-09)
 Smallest eigenvalue of S kept     4.32E-07  (threshold= 4.32E-07, 0 functions deleted, 225 kept)
 
 CPU time for basis constructions                 0.26 sec
 Fock operators(MO) rebuilt from dump record.
 CPU time for fock operators                      0.05 sec
 
                                      TOTAL          ALPHA          BETA    
  Singles Contributions MO        -0.000000000   -0.000000000   -0.000000000
  Singles Contributions CABS      -0.001373122   -0.000686561   -0.000686561
  Pure DF-RHF relaxation          -0.001373122
 
 CPU time for singles                             0.10 sec
 
 AO(A)-basis ORBITAL           loaded. Number of functions:     159
 RI(R)-basis CC-PVTZ-F12/OPTRI loaded. Number of functions:     225
 DF-basis AUG-CC-PVTZ/MP2FIT   loaded. Number of functions:     318

 Screening thresholds:   THRAO=  1.00D-11  THRMO=  1.00D-11  THRPROD=  1.00D-11
                         THRSW=  1.00D-08  THROV=  1.00D-12  THRAOF12=   1.00D-08

 CPU time for transformed integrals               2.97 sec
 CPU time for F12 matrices                        0.57 sec

 Diagonal F12 ansatz with fixed amplitudes:   TS= 0.5000  TT= 0.2500  TN= 0.3750
 
 ITER.     SQ.NORM      CORR.ENERGY   TOTAL ENERGY  ENERGY CHANGE      VAR         CPU   MICRO    DIIS
   1      1.19978005    -0.72268659  -184.48663571    -7.2406E-01   2.00E-01      0.02  1  1  1   0  0
   2      1.19978005    -0.72268659  -184.48663571     1.0547E-14   3.62E-27      0.04  0  0  0   0  0
 
 - - Continuing with F12/conv. amplitude coupling turned on.
 
   3      1.19971477    -0.72280283  -184.48675195    -1.1624E-04   4.65E-05      0.07  1  1  1   1  1
   4      1.19971477    -0.72280283  -184.48675195    -1.1102E-16   3.44E-28      0.11  1  1  1   0  1
 
 CPU time for iterative RMP2-F12                  0.11 sec
 
 
 DF-RMP2-F12 doubles corrections:
 - - - - - - - - - - - - - - - - 
  Approx.                             TOTAL           A-B            A-A            B-B    
  RMP2-F12/3C(FIX)                -0.052549053   -0.048493474   -0.002027790   -0.002027790
  RMP2-F12/3*C(FIX)               -0.052432812   -0.048520724   -0.001956044   -0.001956044
  RMP2-F12/3*C(DX)                -0.052680110   -0.048740023   -0.001970043   -0.001970043
  RMP2-F12/3*C(FIX,DX)            -0.056098091   -0.051844984   -0.002126553   -0.002126553
 
 DF-RMP2-F12 doubles energies:
 - - - - - - - - - - - - - - -
  Approx.                             TOTAL           A-B            A-A            B-B    
  RMP2                            -0.670253775   -0.490643093   -0.089805341   -0.089805341
  RMP2-F12/3C(FIX)                -0.722802828   -0.539136567   -0.091833131   -0.091833131
  RMP2-F12/3*C(FIX)               -0.722686587   -0.539163817   -0.091761385   -0.091761385
  RMP2-F12/3*C(DX)                -0.722933884   -0.539383116   -0.091775384   -0.091775384
  RMP2-F12/3*C(FIX,DX)            -0.726351865   -0.542488077   -0.091931894   -0.091931894
 
 
  Reference energy                   -183.762576003187
  CABS relaxation correction to RHF    -0.001373122141
  New reference energy               -183.763949125328
 
  RMP2-F12 singles (MO) energy         -0.000000000000
  RMP2-F12 pair energy                 -0.722802828234
  RMP2-F12 correlation energy          -0.722802828234
 
  RMP2-F12/3C(FIX) energy            -184.486751953563

 Starting RMP2 calculation

 ITER.      SQ.NORM     CORR.ENERGY   TOTAL ENERGY   ENERGY CHANGE        DEN1      VAR(S)    VAR(P)  DIIS     TIME
   1      1.19699526    -0.66750868  -184.43008468    -0.66750868    -0.00250342  0.25D-19  0.11D-02  1  1     7.33
   2      1.19967994    -0.67020694  -184.43278294    -0.00269826    -0.00000419  0.31D-21  0.24D-05  2  2     7.36
   3      1.19977580    -0.67026246  -184.43283847    -0.00005553    -0.00000001  0.31D-23  0.30D-08  3  3     7.40
   4      1.19977700    -0.67026271  -184.43283871    -0.00000024    -0.00000000  0.38D-25  0.30D-11  4  4     7.44
   5      1.19977700    -0.67026271  -184.43283871    -0.00000000    -0.00000000  0.56D-27  0.39D-14  5  5     7.48
   6      1.19977700    -0.67026271  -184.43283871     0.00000000    -0.00000000  0.82D-29  0.81D-17  6  6     7.53

 Norm of t1 vector:      0.00000000      S-energy:    -0.00000000      T1 diagnostic:  0.00000000
 Norm of t2 vector:      0.44696421      P-energy:    -0.67026271
                                         Alpha-Beta:  -0.49086406
                                         Alpha-Alpha: -0.08969933
                                         Beta-Beta:   -0.08969933

 Spin contamination <S**2-Sz**2-Sz>     0.00000000
  Reference energy                   -183.763949125329
  RHF-RMP2 correlation energy          -0.670262710043
 !RHF-RMP2 energy                    -184.434211835372

 Starting UCCSD calculation

 ITER.      SQ.NORM     CORR.ENERGY   TOTAL ENERGY   ENERGY CHANGE        DEN1      VAR(S)    VAR(P)  DIIS     TIME
   1      1.16387702    -0.61380647  -184.37638248    -0.61380647    -0.02578580  0.72D-02  0.43D-02  1  1     7.80
   2      1.17922822    -0.63417225  -184.39674825    -0.02036578    -0.00249582  0.13D-03  0.86D-03  2  2     8.09
   3      1.18457924    -0.63539807  -184.39797407    -0.00122582    -0.00043432  0.23D-03  0.80D-04  3  3     8.38
   4      1.18852517    -0.63721318  -184.39978919    -0.00181512    -0.00006595  0.20D-04  0.17D-04  4  4     8.67
   5      1.19055811    -0.63783585  -184.40041186    -0.00062267    -0.00000923  0.51D-05  0.17D-05  5  5     8.98
   6      1.19108973    -0.63788428  -184.40046028    -0.00004842    -0.00000109  0.46D-06  0.21D-06  6  6     9.28
   7      1.19124424    -0.63789818  -184.40047418    -0.00001390    -0.00000016  0.84D-07  0.29D-07  6  1     9.59
   8      1.19126964    -0.63790526  -184.40048126    -0.00000708    -0.00000002  0.94D-08  0.50D-08  6  2     9.90
   9      1.19127991    -0.63790452  -184.40048053     0.00000073    -0.00000000  0.54D-09  0.10D-08  6  4    10.20
  10      1.19128173    -0.63790511  -184.40048111    -0.00000059    -0.00000000  0.95D-10  0.10D-09  6  3    10.50
  11      1.19128246    -0.63790507  -184.40048107     0.00000004    -0.00000000  0.67D-11  0.19D-10  6  5    10.80
  12      1.19128176    -0.63790463  -184.40048063     0.00000044    -0.00000000  0.14D-11  0.25D-11  6  6    11.11
  13      1.19128149    -0.63790461  -184.40048061     0.00000003    -0.00000000  0.24D-12  0.20D-12  6  2    11.42
  14      1.19128131    -0.63790451  -184.40048051     0.00000010    -0.00000000  0.10D-13  0.14D-13  6  1    11.72
  15      1.19128129    -0.63790451  -184.40048051     0.00000000    -0.00000000  0.53D-14  0.15D-14  6  2    12.04
  16      1.19128127    -0.63790450  -184.40048050     0.00000001    -0.00000000  0.24D-15  0.17D-15  6  4    12.34
  17      1.19128126    -0.63790450  -184.40048050     0.00000000    -0.00000000  0.25D-16  0.14D-16  6  3    12.66
  18      1.19128126    -0.63790450  -184.40048050    -0.00000000    -0.00000000  0.24D-17  0.20D-17  6  5    12.96
  19      1.19128126    -0.63790450  -184.40048050     0.00000000    -0.00000000  0.29D-18  0.30D-18  6  6    13.27

 Norm of t1 vector:      0.11211391      S-energy:     0.00000000      T1 diagnostic:  0.01981913
                                                                       D1 diagnostic:  0.04633890
 Norm of t2 vector:      0.42274311      P-energy:    -0.63790450
                                         Alpha-Beta:  -0.48885611
                                         Alpha-Alpha: -0.07452419
                                         Beta-Beta:   -0.07452419

 Spin contamination <S**2-Sz**2-Sz>     0.00000000

 Memory could be reduced to 15.05 Mwords without degradation in triples
 

 RESULTS
 =======

  Reference energy                   -183.762576003187
  CABS relaxation correction to RHF    -0.001373122141
  New reference energy               -183.763949125329
 
  F12 corrections for ansatz 3C(FIX) added to UCCSD energy. Coupling mode: 15
 
  UCCSD-F12b singles energy             0.000000000005
  UCCSD-F12b pair energy               -0.680879189961
  UCCSD-F12b correlation energy        -0.680879189956
  Triples (T) contribution             -0.037318816567
  Total correlation energy             -0.718198006524
 
  RHF-UCCSD-F12b energy              -184.444828315285
  RHF-UCCSD[T]-F12b energy           -184.484899885820
  RHF-UCCSD-T-F12b energy            -184.481246387631
 !RHF-UCCSD(T)-F12b energy           -184.482147131853

 Program statistics:

 Available memory in ccsd:               849999308
 Min. memory needed in ccsd:               1619417
 Max. memory used in ccsd:                 2249321
 Max. memory used in cckext:               1946278 (20 integral passes)
 Max. memory used in cckint:               1514071 ( 1 integral passes)



 **********************************************************************************************************************************
 DATASETS  * FILE   NREC   LENGTH (MB)   RECORD NAMES
              1      18       19.41       500      610      700      900      950      970     1000      129      960     1100   
                                          VAR    BASINP    GEOM    SYMINP    ZMAT    AOBASIS   BASIS     P2S    ABASIS      S 
                                         1400     1410     1200     1210     1080     1600     1650     1700   
                                           T        V       H0       H01     AOSYM     SMH    MOLCAS    OPER   

              2       9        0.74       700     1000      520     2100     7360     5600     5300     5400     5450   
                                         GEOM     BASIS   MCVARS     RHF    F12ABS    GINFO    HESS     FREQ     NMOD   

 PROGRAMS   *        TOTAL      F12B      OPTG      F12B       RHF       INT
 CPU TIMES  *      2152.65     17.54     98.74     17.83      0.33      1.37
 REAL TIME  *      2453.74 SEC
 DISK USED  *         2.65 GB      
 SF USED    *         1.69 GB      
 GA USED    *         2.47 MB       (max)       0.00 MB       (current)
 **********************************************************************************************************************************


 **********************************************************************************************************************************
 DATASETS  * FILE   NREC   LENGTH (MB)   RECORD NAMES
              1      18       19.41       500      610      700      900      950      970     1000      129      960     1100   
                                          VAR    BASINP    GEOM    SYMINP    ZMAT    AOBASIS   BASIS     P2S    ABASIS      S 
                                         1400     1410     1200     1210     1080     1600     1650     1700   
                                           T        V       H0       H01     AOSYM     SMH    MOLCAS    OPER   

              2       9        0.74       700     1000      520     2100     7360     5600     5300     5400     5450   
                                         GEOM     BASIS   MCVARS     RHF    F12ABS    GINFO    HESS     FREQ     NMOD   

 PROGRAMS   *        TOTAL      FREQ      OPTG      F12B       RHF       INT
 CPU TIMES  *      2152.65   2034.23     98.74     17.83      0.33      1.37
 REAL TIME  *      2453.74 SEC
 DISK USED  *         2.65 GB      
 SF USED    *         1.69 GB      
 GA USED    *         2.47 MB       (max)       0.00 MB       (current)
 **********************************************************************************************************************************

 Dump information in style MOLDEN to freq.molden                                                                     

 Molecular orbitals read from record     2100.2  Type=RHF/CANONICAL (state 1.1)
 Occupation numbers read from record     2100.2  Type=RHF/RHF (state 1.1)
 Orbital energies read from record       2100.2  Type=RHF/CANONICAL (state 1.1)
 Redundancy group numbers read from rec  2100.2  Type=RHF/RHF (state 1.1)
 
 DUMP ORBITAL  1.1 AS ORBITAL    1  occ=    2.0000  eig=  -20.6555  GROUP=   2
 DUMP ORBITAL  2.1 AS ORBITAL    2  occ=    2.0000  eig=  -15.8442  GROUP=   2
 DUMP ORBITAL  3.1 AS ORBITAL    3  occ=    2.0000  eig=  -15.6986  GROUP=   2
 DUMP ORBITAL  4.1 AS ORBITAL    4  occ=    2.0000  eig=   -1.6118  GROUP=   2
 DUMP ORBITAL  5.1 AS ORBITAL    5  occ=    2.0000  eig=   -1.4230  GROUP=   2
 DUMP ORBITAL  6.1 AS ORBITAL    6  occ=    2.0000  eig=   -0.8336  GROUP=   2
 DUMP ORBITAL  1.2 AS ORBITAL    7  occ=    2.0000  eig=   -0.7623  GROUP=   2
 DUMP ORBITAL  1.3 AS ORBITAL    8  occ=    2.0000  eig=   -0.7623  GROUP=   2
 DUMP ORBITAL  7.1 AS ORBITAL    9  occ=    2.0000  eig=   -0.6993  GROUP=   2
 DUMP ORBITAL  2.2 AS ORBITAL   10  occ=    2.0000  eig=   -0.4920  GROUP=   2
 DUMP ORBITAL  2.3 AS ORBITAL   11  occ=    2.0000  eig=   -0.4920  GROUP=   2

 Total charge:      22.000000
 Frequency information read from record  5400.2

 **********************************************************************************************************************************

 UCCSD(T)-F12B/cc-pVTZ-F12 energy=   -184.482147131853

OPTG(UCCSD(T)-F1   UCCSD(T)-F12B        RHF-SCF 
   -184.48214713   -184.48214713   -183.76257600
 **********************************************************************************************************************************
 Variable memory released
