
 Primary working directories    : /scratch/kmoore
 Secondary working directories  : /scratch/kmoore
 Wavefunction directory         : /scratch/kmoore/
 Main file repository           : /scratch/kmoore/

 SHA1      : b6b3a4772808bb2d43777f23454e145ddfe12dc3
 NAME      : 2015.1.1
 ARCHNAME  : linux/x86_64
 FC        : /soft/mvapich2/2.2b_psm/intel-15.0/bin/mpif90
 BLASLIB   : -L/soft/intel/15.0.1/composer_xe_2015.0.090/mkl/lib/intel64 -lmkl_intel_ilp64 -lmkl_sequential -lmkl_core
 id        : anlgov

 Nodes     nprocs
 b460         1

 Using customized tuning parameters: mindgm=1; mindgv=20; mindgc=4; mindgr=1; noblas=0; minvec=7
 default implementation of scratch files=df  

 angstrom
 Geometry = {
  O      0.000000    0.000000    0.000000
  C      0.000000    0.000000    1.201402
  H      0.937573    0.000000    1.789196
  H     -0.937573   -0.000000    1.789196
 }
 
 set,charge=0
 set,spin=0
 
 basis=cc-pVDZ
 
 {rhf}
 {mp2}

 Variables initialized (889), CPU time= 0.01 sec
 Commands  initialized (702), CPU time= 0.01 sec, 572 directives.
 Default parameters read. Elapsed time= 0.05 sec

 Checking input...
 Passed
1


                                         ***  PROGRAM SYSTEM MOLPRO  ***
                                       Copyright, TTI GmbH Stuttgart, 2015
                                    Version 2015.1 linked Jan  8 2016 07:59:11


 **********************************************************************************************************************************
 LABEL *                                                                                 
  64 bit serial version                                                                  DATE: 27-Jan-19          TIME: 13:18:47  
 **********************************************************************************************************************************

 SHA1:             b6b3a4772808bb2d43777f23454e145ddfe12dc3
 **********************************************************************************************************************************
 ZUNIT=ANG
 

Geometry recognized as XYZ

 SETTING CHARGE         =     0.00000000D+00                                  
 SETTING SPIN           =     0.00000000D+00                                  

 Variable memory set to    8000000 words,  buffer space   230000 words

 SETTING BASIS          =    CC-PVDZ


 Recomputing integrals since basis changed


 Using spherical harmonics

 Library entry O      S cc-pVDZ              selected for orbital group  1
 Library entry O      P cc-pVDZ              selected for orbital group  1
 Library entry O      D cc-pVDZ              selected for orbital group  1
 Library entry C      S cc-pVDZ              selected for orbital group  2
 Library entry C      P cc-pVDZ              selected for orbital group  2
 Library entry C      D cc-pVDZ              selected for orbital group  2
 Library entry H      S cc-pVDZ              selected for orbital group  3
 Library entry H      P cc-pVDZ              selected for orbital group  3

1PROGRAM * SEWARD (Integral evaluation for generally contracted gaussian basis sets)     Author: Roland Lindh, 1990

 Geometry written to block  1 of record 700


 Point group  C2v 



 ATOMIC COORDINATES

 NR  ATOM    CHARGE       X              Y              Z

   1  O       8.00    0.000000000    0.000000000    0.000000000
   2  C       6.00    0.000000000    0.000000000    2.270320746
   3  H       1.00    1.771756192    0.000000000    3.381090423
   4  H       1.00   -1.771756192    0.000000000    3.381090423

 Bond lengths in Bohr (Angstrom)

 1-2  2.270320746  2-3  2.091155011  2-4  2.091155011
     ( 1.201402000)     ( 1.106591576)     ( 1.106591576)

 Bond angles

  1-2-3  122.08489268   1-2-4  122.08489268   3-2-4  115.83021464

 NUCLEAR CHARGE:                   16
 NUMBER OF PRIMITIVE AOS:          68
 NUMBER OF SYMMETRY AOS:           66
 NUMBER OF CONTRACTIONS:           38   (  18A1  +  10B1  +   7B2  +   3A2  )
 NUMBER OF CORE ORBITALS:           2   (   2A1  +   0B1  +   0B2  +   0A2  )
 NUMBER OF VALENCE ORBITALS:       10   (   5A1  +   3B1  +   2B2  +   0A2  )


 NUCLEAR REPULSION ENERGY   31.35462023

 Eigenvalues of metric

         1 0.128E-01 0.175E-01 0.477E-01 0.755E-01 0.129E+00 0.137E+00 0.163E+00 0.386E+00
         2 0.347E-01 0.427E-01 0.128E+00 0.179E+00 0.362E+00 0.953E+00 0.111E+01 0.119E+01
         3 0.140E+00 0.191E+00 0.417E+00 0.596E+00 0.113E+01 0.172E+01 0.281E+01
         4 0.459E+00 0.998E+00 0.153E+01


 Contracted 2-electron integrals neglected if value below      1.0D-11
 AO integral compression algorithm  1   Integral accuracy      1.0D-11

     0.524 MB (compressed) written to integral file ( 96.7%)


 NUMBER OF SORTED TWO-ELECTRON INTEGRALS:      79784.     BUFFER LENGTH:  32768
 NUMBER OF SEGMENTS:   1  SEGMENT LENGTH:      79784      RECORD LENGTH: 524288

 Memory used in sort:       0.64 MW

 SORT1 READ      101596. AND WROTE       75698. INTEGRALS IN      1 RECORDS. CPU TIME:     0.00 SEC, REAL TIME:     0.02 SEC
 SORT2 READ       75698. AND WROTE       79784. INTEGRALS IN      2 RECORDS. CPU TIME:     0.01 SEC, REAL TIME:     0.01 SEC

 FILE SIZES:   FILE 1:    19.7 MBYTE,  FILE 4:     4.2 MBYTE,   TOTAL:     23.9 MBYTE

 OPERATOR DM      FOR CENTER  0  COORDINATES:    0.000000    0.000000    0.000000


 **********************************************************************************************************************************
 DATASETS  * FILE   NREC   LENGTH (MB)   RECORD NAMES
              1      19       19.55       500      610      700      900      950      970     1000      129      960     1100   
                                          VAR    BASINP    GEOM    SYMINP    ZMAT    AOBASIS   BASIS     P2S    ABASIS      S 
                                         1400     1410     1200     1210     1080     1600     1650     1300     1700   
                                           T        V       H0       H01     AOSYM     SMH    MOLCAS    ERIS     OPER   

 PROGRAMS   *        TOTAL       INT
 CPU TIMES  *         0.16      0.06
 REAL TIME  *         0.25 SEC
 DISK USED  *        24.23 MB      
 **********************************************************************************************************************************

1PROGRAM * RHF-SCF (CLOSED SHELL)       Authors: W. Meyer, H.-J. Werner


 NUMBER OF ELECTRONS:       8+    8-
 CONVERGENCE THRESHOLDS:    1.00E-05 (Density)    1.00E-07 (Energy)
 MAX. NUMBER OF ITERATIONS:       60
 INTERPOLATION TYPE:            DIIS
 INTERPOLATION STEPS:              2 (START)      1 (STEP)
 LEVEL SHIFTS:                  0.00 (CLOSED)  0.00 (OPEN) 



 Orbital guess generated from atomic densities. Full valence occupancy:    7   3   2   0

 Molecular orbital dump at record        2100.2

 Initial occupancy:   5   2   1   0

 ITERATION    DDIFF          GRAD             ENERGY        2-EL.EN.            DIPOLE MOMENTS         DIIS   ORB.
    1      0.000D+00      0.000D+00      -113.82525343    145.292997    0.00000    0.00000    1.63171    0    start
    2      0.000D+00      0.255D-01      -113.84994181    143.431204    0.00000    0.00000    0.67806    1    diag
    3      0.592D-01      0.203D-01      -113.87596679    144.612053    0.00000    0.00000    1.08064    2    diag
    4      0.250D-01      0.166D-02      -113.87640177    144.449053    0.00000    0.00000    1.05714    3    diag
    5      0.367D-02      0.594D-03      -113.87646483    144.495577    0.00000    0.00000    1.05427    4    diag
    6      0.131D-02      0.244D-03      -113.87648157    144.486286    0.00000    0.00000    1.05045    5    diag
    7      0.825D-03      0.832D-04      -113.87648288    144.487926    0.00000    0.00000    1.04929    6    diag
    8      0.282D-03      0.131D-04      -113.87648291    144.487872    0.00000    0.00000    1.04910    7    diag
    9      0.457D-04      0.164D-05      -113.87648291    144.487860    0.00000    0.00000    1.04909    8    diag
   10      0.484D-05      0.307D-06      -113.87648291    144.487863    0.00000    0.00000    1.04910    0    orth

 Final occupancy:   5   2   1   0

 !RHF STATE 1.1 Energy               -113.876482911566
 Nuclear energy                        31.35462023
 One-electron energy                 -217.47503482
 Two-electron energy                   72.24393168
 Virial quotient                       -1.00134157
 !RHF STATE 1.1 Dipole moment           0.00000000     0.00000000     1.04909767
 Dipole moment /Debye                   0.00000000     0.00000000     2.66636566

 Orbital energies:

         1.1          2.1          3.1          4.1          5.1          6.1          7.1
    -20.575975   -11.345471    -1.406473    -0.864233    -0.647492     0.189067     0.360577

         1.2          2.2          3.2          4.2
     -0.688075    -0.434774     0.258002     0.737786

         1.3          2.3          3.3
     -0.531092     0.136941     0.668783

         1.4          2.4
      1.156205     2.001082

 HOMO      2.2    -0.434774 =     -11.8308eV
 LUMO      2.3     0.136941 =       3.7264eV
 LUMO-HOMO         0.571715 =      15.5572eV


 **********************************************************************************************************************************
 DATASETS  * FILE   NREC   LENGTH (MB)   RECORD NAMES
              1      19       19.55       500      610      700      900      950      970     1000      129      960     1100   
                                          VAR    BASINP    GEOM    SYMINP    ZMAT    AOBASIS   BASIS     P2S    ABASIS      S 
                                         1400     1410     1200     1210     1080     1600     1650     1300     1700   
                                           T        V       H0       H01     AOSYM     SMH    MOLCAS    ERIS     OPER   

              2       4        0.43       700     1000      520     2100   
                                         GEOM     BASIS   MCVARS     RHF  

 PROGRAMS   *        TOTAL       RHF       INT
 CPU TIMES  *         0.17      0.01      0.06
 REAL TIME  *         0.27 SEC
 DISK USED  *        24.23 MB      
 **********************************************************************************************************************************


1PROGRAM * MP2 (Closed-shell)     Authors: C. Hampel, H.-J. Werner, 1991, M. Deegan, P.J. Knowles, 1992


 Convergence thresholds:  THRVAR = 1.00D-08  THRDEN = 1.00D-06

 Number of core orbitals:           2 (   2   0   0   0 )
 Number of closed-shell orbitals:   6 (   3   2   1   0 )
 Number of external orbitals:      30 (  13   8   6   3 )

 Molecular orbitals read from record     2100.2  Type=RHF/CANONICAL (state 1.1)

 Number of N-1 electron functions:               6
 Number of N-2 electron functions:              21
 Number of singly external CSFs:                61
 Number of doubly external CSFs:              4460
 Total number of CSFs:                        4522

 Length of J-op  integral file:               0.00 MB
 Length of K-op  integral file:               0.07 MB

 Integral transformation finished. Total CPU:   0.00 sec, npass=  1  Memory used:   0.08 MW

 Memory needed for MP2:                      0.00 MW

 SCS-MP2 correlation energy:           -0.311375067545   (PS=  1.200000  PT=  0.333333)
 SCS-MP2 total energy:               -114.187857979111


  Reference energy                   -113.876482911566
  MP2 singlet pair energy              -0.198339316699
  MP2 triplet pair energy              -0.117912676349
  MP2 correlation energy               -0.316251993048

 !MP2 total energy                   -114.192734904614


 **********************************************************************************************************************************
 DATASETS  * FILE   NREC   LENGTH (MB)   RECORD NAMES
              1      20       19.67       500      610      700      900      950      970     1000      129      960     1100   
                                          VAR    BASINP    GEOM    SYMINP    ZMAT    AOBASIS   BASIS     P2S    ABASIS      S 
                                         1400     1410     1200     1210     1080     1600     1650     1300     1700     1380   
                                           T        V       H0       H01     AOSYM     SMH    MOLCAS    ERIS     OPER     JKOP   

              2       4        0.43       700     1000      520     2100   
                                         GEOM     BASIS   MCVARS     RHF  

 PROGRAMS   *        TOTAL       MP2       RHF       INT
 CPU TIMES  *         0.20      0.03      0.01      0.06
 REAL TIME  *         0.44 SEC
 DISK USED  *        24.23 MB      
 **********************************************************************************************************************************

 MP2/cc-pVDZ energy=   -114.192734904614

        MP2             RHF-SCF 
   -114.19273490   -113.87648291
 **********************************************************************************************************************************
 Variable memory released
