
    -----------------------------------------------------------------------
          Psi4: An Open-Source Ab Initio Electronic Structure Package
                               Psi4 1.2.1 release

                         Git: Rev {HEAD} 406f4de 


    R. M. Parrish, L. A. Burns, D. G. A. Smith, A. C. Simmonett,
    A. E. DePrince III, E. G. Hohenstein, U. Bozkaya, A. Yu. Sokolov,
    R. Di Remigio, R. M. Richard, J. F. Gonthier, A. M. James,
    H. R. McAlexander, A. Kumar, M. Saitow, X. Wang, B. P. Pritchard,
    P. Verma, H. F. Schaefer III, K. Patkowski, R. A. King, E. F. Valeev,
    F. A. Evangelista, J. M. Turney, T. D. Crawford, and C. D. Sherrill,
    J. Chem. Theory Comput. 13(7) pp 3185--3197 (2017).
    (doi: 10.1021/acs.jctc.7b00174)


                         Additional Contributions by
    P. Kraus, H. Kruse, M. H. Lechner, M. C. Schieber, and R. A. Shaw

    -----------------------------------------------------------------------


    Psi4 started on: Monday, 28 January 2019 07:36PM

    Process ID: 89787
    Host:       blogin3
    PSIDATADIR: /home/kmoore/miniconda/envs/esenv/share/psi4
    Memory:     500.0 MiB
    Threads:    1
    
  ==> Input File <==

--------------------------------------------------------------------------
# Psi4 1.0 Computation 

molecule {
 0 1
 H
 O 1 r1
 C 2 r2 1 a1
 H 3 r3 2 a2 1 d1
 H 3 r4 4 a3 2 d2
 H 3 r4 4 a3 2 d3
 r1 =   0.992
 r2 =   1.398
 r3 =   1.109
 r4 =   1.112
 a1 =   106.0
 a2 =   108.9
 a3 =   108.2
 d2 =   119.9
 d3 =  -119.9
 d1 =     0.0
 symmetry c1
 units angstrom
}

set reference rks
set scf_type pk
set basis cc-pVDZ 
set opt_type ts

opt('b3lyp')
G, wfn1 = gradient('b3lyp', return_wfn=True)
E, wfn2 = frequencies('b3lyp', dertype=1, return_wfn=True)
wfn1.gradient().print_out()
wfn2.hessian().print_out()


--------------------------------------------------------------------------
gradient() will perform analytic gradient computation.

*** tstart() called on blogin3
*** at Mon Jan 28 19:36:43 2019

   => Loading Basis Set <=

    Name: CC-PVDZ
    Role: ORBITAL
    Keyword: BASIS
    atoms 1, 4-6 entry H          line    22 file /home/kmoore/miniconda/envs/esenv/share/psi4/basis/cc-pvdz.gbs 
    atoms 2      entry O          line   198 file /home/kmoore/miniconda/envs/esenv/share/psi4/basis/cc-pvdz.gbs 
    atoms 3      entry C          line   138 file /home/kmoore/miniconda/envs/esenv/share/psi4/basis/cc-pvdz.gbs 


         ---------------------------------------------------------
                                   SCF
            by Justin Turney, Rob Parrish, Andy Simmonett
                             and Daniel Smith
                              RKS Reference
                        1 Threads,    500 MiB Core
         ---------------------------------------------------------

  ==> Geometry <==

    Molecular point group: c1
    Full point group: Cs

    Geometry (in Angstrom), charge = 0, multiplicity = 1:

       Center              X                  Y                   Z               Mass       
    ------------   -----------------  -----------------  -----------------  -----------------
         H           -0.665038310671     1.149813835605     0.000000000000     1.007825032070
         O           -0.665038310671     0.157813835605     0.000000000000    15.994914619560
         C            0.678805540251    -0.227527187827     0.000000000000    12.000000000000
         H            1.313315313902     0.682021242517     0.000000000000     1.007825032070
         H            0.911971158109    -0.813663962751    -0.915762783548     1.007825032070
         H            0.911971158109    -0.813663962751     0.915762783548     1.007825032070

  Running in c1 symmetry.

  Rotational constants: A =      4.07595  B =      0.84865  C =      0.81757 [cm^-1]
  Rotational constants: A = 122193.78151  B =  25441.92798  C =  24510.15483 [MHz]
  Nuclear repulsion =   40.358885700958254

  Charge       = 0
  Multiplicity = 1
  Electrons    = 18
  Nalpha       = 9
  Nbeta        = 9

  ==> Algorithm <==

  SCF Algorithm Type is PK.
  DIIS enabled.
  MOM disabled.
  Fractional occupation disabled.
  Guess Type is SAD.
  Energy threshold   = 1.00e-08
  Density threshold  = 1.00e-08
  Integral threshold = 0.00e+00

  ==> Primary Basis <==

  Basis Set: CC-PVDZ
    Blend: CC-PVDZ
    Number of shells: 24
    Number of basis function: 48
    Number of Cartesian functions: 50
    Spherical Harmonics?: true
    Max angular momentum: 2

  ==> DFT Potential <==

   => Composite Functional: B3LYP <= 

    B3LYP Hyb-GGA Exchange-Correlation Functional

    P. J. Stephens, F. J. Devlin, C. F. Chabalowski, and M. J. Frisch, J. Phys. Chem. 98, 11623 (1994)

    Deriv               =              1
    GGA                 =           TRUE
    Meta                =          FALSE

    Exchange Hybrid     =           TRUE
    MP2 Hybrid          =          FALSE

   => Exchange Functionals <=

    0.0800   Slater exchange
    0.7200         Becke 88

   => Exact (HF) Exchange <=

    0.2000               HF 

   => Correlation Functionals <=

    0.1900   Vosko, Wilk & Nusair (VWN5_RPA)
    0.8100   Lee, Yang & Parr

   => Molecular Quadrature <=

    Radial Scheme       =       TREUTLER
    Pruning Scheme      =           FLAT
    Nuclear Scheme      =       TREUTLER

    BS radius alpha     =              1
    Pruning alpha       =              1
    Radial Points       =             75
    Spherical Points    =            302
    Total Points        =         133352
    Total Blocks        =           1071
    Max Points          =            256
    Max Functions       =             48

  ==> Pre-Iterations <==

   -------------------------------------------------------
    Irrep   Nso     Nmo     Nalpha   Nbeta   Ndocc  Nsocc
   -------------------------------------------------------
     A         48      48       0       0       0       0
   -------------------------------------------------------
    Total      48      48       9       9       9       0
   -------------------------------------------------------

  ==> Integral Setup <==

  Using in-core PK algorithm.
   Calculation information:
      Number of atoms:                   6
      Number of AO shells:              24
      Number of primitives:             64
      Number of atomic orbitals:        50
      Number of basis functions:        48

      Integral cutoff                 1.00e-12
      Number of threads:                 1

  Performing in-core PK
  Using 1384152 doubles for integral storage.
  We computed 45150 shell quartets total.
  Whereas there are 45150 unique shell quartets.

  ==> DiskJK: Disk-Based J/K Matrices <==

    J tasked:                  Yes
    K tasked:                  Yes
    wK tasked:                  No
    Memory (MB):               375
    Schwarz Cutoff:          1E-12

    OpenMP threads:              1

  Minimum eigenvalue in the overlap matrix is 1.6331230448E-02.
  Using Symmetric Orthogonalization.

  SCF Guess: Superposition of Atomic Densities via on-the-fly atomic UHF.

  ==> Iterations <==

                        Total Energy        Delta E     RMS |[F,P]|

   @RKS iter   0:  -115.93030716428417   -1.15930e+02   5.04800e-02 
   @RKS iter   1:  -115.67385200078832    2.56455e-01   6.71745e-03 
   @RKS iter   2:  -115.64521941396892    2.86326e-02   9.10884e-03 DIIS
   @RKS iter   3:  -115.71785798887007   -7.26386e-02   7.84401e-04 DIIS
   @RKS iter   4:  -115.71834142038958   -4.83432e-04   3.27845e-04 DIIS
   @RKS iter   5:  -115.71845543398943   -1.14014e-04   6.17098e-05 DIIS
   @RKS iter   6:  -115.71845943803382   -4.00404e-06   3.88205e-06 DIIS
   @RKS iter   7:  -115.71845945558876   -1.75549e-08   7.31568e-07 DIIS
   @RKS iter   8:  -115.71845945622354   -6.34785e-10   1.43171e-07 DIIS
   @RKS iter   9:  -115.71845945624661   -2.30642e-11   1.72184e-08 DIIS
   @RKS iter  10:  -115.71845945624709   -4.83169e-13   2.45771e-09 DIIS

  ==> Post-Iterations <==

    Orbital Energies [Eh]
    ---------------------

    Doubly Occupied:                                                      

       1A    -19.128778     2A    -10.226963     3A     -1.012497  
       4A     -0.668554     5A     -0.500672     6A     -0.434713  
       7A     -0.419934     8A     -0.322453     9A     -0.261063  

    Virtual:                                                              

      10A      0.042508    11A      0.091028    12A      0.138813  
      13A      0.140077    14A      0.204795    15A      0.444624  
      16A      0.459780    17A      0.492902    18A      0.577579  
      19A      0.621585    20A      0.627440    21A      0.642060  
      22A      0.874719    23A      0.898513    24A      0.948291  
      25A      1.018650    26A      1.060283    27A      1.154677  
      28A      1.354109    29A      1.399347    30A      1.446971  
      31A      1.580568    32A      1.623553    33A      1.627125  
      34A      1.645001    35A      1.747279    36A      1.800283  
      37A      1.998508    38A      2.075842    39A      2.077348  
      40A      2.113074    41A      2.361266    42A      2.385475  
      43A      2.424540    44A      2.939397    45A      3.013176  
      46A      3.077449    47A      3.195183    48A      3.644719  

    Final Occupation by Irrep:
              A 
    DOCC [     9 ]

  Energy converged.

  @RKS Final Energy:  -115.71845945624709

   => Energetics <=

    Nuclear Repulsion Energy =             40.3588857009582540
    One-Electron Energy =                -237.1884754239115694
    Two-Electron Energy =                  93.6608604553281197
    DFT Exchange-Correlation Energy =     -12.5497301886219024
    Empirical Dispersion Energy =           0.0000000000000000
    VV10 Nonlocal Energy =                  0.0000000000000000
    Total Energy =                       -115.7184594562470892



Properties will be evaluated at   0.000000,   0.000000,   0.000000 [a0]

Properties computed using the SCF density matrix

  Nuclear Dipole Moment: [e a0]
     X:     2.3144      Y:     0.1925      Z:     0.0000

  Electronic Dipole Moment: [e a0]
     X:    -1.8688      Y:     0.2938      Z:     0.0000

  Dipole Moment: [e a0]
     X:     0.4456      Y:     0.4863      Z:     0.0000     Total:     0.6596

  Dipole Moment: [D]
     X:     1.1326      Y:     1.2360      Z:     0.0000     Total:     1.6764


*** tstop() called on blogin3 at Mon Jan 28 19:36:49 2019
Module time:
	user time   =       5.47 seconds =       0.09 minutes
	system time =       0.08 seconds =       0.00 minutes
	total time  =          6 seconds =       0.10 minutes
Total time:
	user time   =       5.47 seconds =       0.09 minutes
	system time =       0.08 seconds =       0.00 minutes
	total time  =          6 seconds =       0.10 minutes

*** tstart() called on blogin3
*** at Mon Jan 28 19:36:49 2019


         ------------------------------------------------------------
                                   SCF GRAD                          
                          Rob Parrish, Justin Turney,                
                       Andy Simmonett, and Alex Sokolov              
         ------------------------------------------------------------

  ==> Geometry <==

    Molecular point group: c1
    Full point group: Cs

    Geometry (in Angstrom), charge = 0, multiplicity = 1:

       Center              X                  Y                   Z               Mass       
    ------------   -----------------  -----------------  -----------------  -----------------
         H           -0.665038310671     1.149813835605     0.000000000000     1.007825032070
         O           -0.665038310671     0.157813835605     0.000000000000    15.994914619560
         C            0.678805540251    -0.227527187827     0.000000000000    12.000000000000
         H            1.313315313902     0.682021242517     0.000000000000     1.007825032070
         H            0.911971158109    -0.813663962751    -0.915762783548     1.007825032070
         H            0.911971158109    -0.813663962751     0.915762783548     1.007825032070

  Nuclear repulsion =   40.358885700958254

  ==> Basis Set <==

  Basis Set: CC-PVDZ
    Blend: CC-PVDZ
    Number of shells: 24
    Number of basis function: 48
    Number of Cartesian functions: 50
    Spherical Harmonics?: true
    Max angular momentum: 2

  ==> DirectJKGrad: Integral-Direct SCF Gradients <==

    Gradient:                    1
    J tasked:                  Yes
    K tasked:                  Yes
    wK tasked:                  No
    Integrals threads:           1
    Schwarz Cutoff:          0E+00

  ==> DFT Potential <==

   => Composite Functional: B3LYP <= 

    B3LYP Hyb-GGA Exchange-Correlation Functional

    P. J. Stephens, F. J. Devlin, C. F. Chabalowski, and M. J. Frisch, J. Phys. Chem. 98, 11623 (1994)

    Deriv               =              1
    GGA                 =           TRUE
    Meta                =          FALSE

    Exchange Hybrid     =           TRUE
    MP2 Hybrid          =          FALSE

   => Exchange Functionals <=

    0.0800   Slater exchange
    0.7200         Becke 88

   => Exact (HF) Exchange <=

    0.2000               HF 

   => Correlation Functionals <=

    0.1900   Vosko, Wilk & Nusair (VWN5_RPA)
    0.8100   Lee, Yang & Parr

   => Molecular Quadrature <=

    Radial Scheme       =       TREUTLER
    Pruning Scheme      =           FLAT
    Nuclear Scheme      =       TREUTLER

    BS radius alpha     =              1
    Pruning alpha       =              1
    Radial Points       =             75
    Spherical Points    =            302
    Total Points        =         133352
    Total Blocks        =           1071
    Max Points          =            256
    Max Functions       =             48


  -Total Gradient:
     Atom            X                  Y                   Z
    ------   -----------------  -----------------  -----------------
       1        0.004375673360     0.025595555540    -0.000000000834
       2        0.018436011001    -0.029089453146     0.000000000701
       3       -0.012602306690    -0.004869943141    -0.000000001536
       4       -0.006501822511     0.006827489110     0.000000000062
       5       -0.001852333725     0.000769699955    -0.005441264634
       6       -0.001852333212     0.000769699111     0.005441266241


*** tstop() called on blogin3 at Mon Jan 28 19:36:51 2019
Module time:
	user time   =       1.97 seconds =       0.03 minutes
	system time =       0.01 seconds =       0.00 minutes
	total time  =          2 seconds =       0.03 minutes
Total time:
	user time   =       7.44 seconds =       0.12 minutes
	system time =       0.09 seconds =       0.00 minutes
	total time  =          8 seconds =       0.13 minutes

			-----------------------------------------
			 OPTKING 2.0: for geometry optimizations 
			  - R.A. King,  Bethel University        
			-----------------------------------------

	Internal coordinates to be generated automatically.
	Detected frag 1 with atoms:  1 2 3 4 5 6
	---Fragment 1 Bond Connectivity---
	 1 : 2
	 2 : 1 3
	 3 : 2 4 5 6
	 4 : 3
	 5 : 3
	 6 : 3

	---Fragment 1 Geometry and Gradient---
	 H          -1.2567402750        2.1728332531        0.0000000000
	 O          -1.2567402750        0.2982249293        0.0000000000
	 C           1.2827565686       -0.4299640728        0.0000000000
	 H           2.4818062694        1.2888333652        0.0000000000
	 H           1.7233757299       -1.5376020538       -1.7305408636
	 H           1.7233757299       -1.5376020538        1.7305408636
	             0.0043756734        0.0255955555       -0.0000000008
	             0.0184360110       -0.0290894531        0.0000000007
	            -0.0126023067       -0.0048699431       -0.0000000015
	            -0.0065018225        0.0068274891        0.0000000001
	            -0.0018523337        0.0007697000       -0.0054412646
	            -0.0018523332        0.0007696991        0.0054412662

	Previous optimization step data not found.  Starting new optimization.

	---Fragment 1 Intrafragment Coordinates---
	 - Coordinate -           - BOHR/RAD -       - ANG/DEG -
	 R(1,2)           =         1.874608	       0.992000
	 R(2,3)           =         2.641837	       1.398000
	 R(3,4)           =         2.095706	       1.109000
	 R(3,5)           =         2.101375	       1.112000
	 R(3,6)           =         2.101375	       1.112000
	 B(1,2,3)         =         1.850049	     106.000000
	 B(2,3,4)         =         1.900664	     108.900000
	 B(2,3,5)         =         1.925004	     110.294612
	 B(2,3,6)         =         1.925004	     110.294612
	 B(4,3,5)         =         1.888446	     108.200000
	 B(4,3,6)         =         1.888446	     108.200000
	 B(5,3,6)         =         1.935204	     110.879007
	 D(1,2,3,4)       =         0.000000	       0.000000
	 D(1,2,3,5)       =        -2.069852	    -118.593807
	 D(1,2,3,6)       =         2.069852	     118.593807

	Current energy   :      -115.7184594562

	Generating empirical Hessian (Schlegel '84) for each fragment.
	Taking PRFO optimization step.
	Maximizing along 1 lowest eigenvalue of Hessian.

 RFO min eigenvalues
 -0.005268  0.000000  0.000000  0.005210  0.098864  0.101223  0.160000  0.160000
  0.160000  0.162050  0.323892  0.323974  0.327072  0.460626  0.492608

 RFO max eigenvalues
 -0.000000  0.000000
	|RFO target step|  :        0.1560152004
	RFO gradient       :       -0.0337629173
	RFO hessian        :        0.2111418573
	Projected Delta(E) :       -0.0026337462

	Back-transformation to cartesian coordinates...
	Could not converge backtransformation.
	Using first guess instead.

	--- Internal Coordinate Step in ANG or DEG, aJ/ANG or AJ/DEG ---
	 ---------------------------------------------------------------------------
	   Coordinate                Previous        Force       Change         New 
	   ----------                --------       ------       ------       ------
	    1 R(1,2)          =      0.992000    -0.210869    -0.025581     0.966419
	    2 R(2,3)          =      1.398000     0.188587     0.026106     1.424106
	    3 R(3,4)          =      1.109000    -0.015480     0.001420     1.110420
	    4 R(3,5)          =      1.112000    -0.030377    -0.005349     1.106651
	    5 R(3,6)          =      1.112000    -0.030377    -0.005349     1.106651
	    6 B(1,2,3)        =    106.000000     0.000624     2.941406   108.941406
	    7 B(2,3,4)        =    108.900000     0.001112     5.565474   114.465474
	    8 B(2,3,5)        =    110.294612     0.000088     0.121788   110.416400
	    9 B(2,3,6)        =    110.294612     0.000088     0.121788   110.416400
	   10 B(4,3,5)        =    108.200000    -0.000363    -1.293453   106.906547
	   11 B(4,3,6)        =    108.200000    -0.000363    -1.293453   106.906547
	   12 B(5,3,6)        =    110.879007    -0.000547    -3.467624   107.411383
	   13 D(1,2,3,4)      =      0.000000    -0.000000     0.000000     0.000000
	   14 D(1,2,3,5)      =   -118.593807    -0.000066    -2.088364  -120.682171
	   15 D(1,2,3,6)      =    118.593807     0.000066     2.088360   120.682167
	 ---------------------------------------------------------------------------
	Successfully symmetrized geometry.

  ==> Convergence Check <==

  Measures of convergence in internal coordinates in au.
  Criteria marked as inactive (o), active & met (*), and active & unmet ( ).
  --------------------------------------------------------------------------------------------- ~
   Step     Total Energy     Delta E     MAX Force     RMS Force      MAX Disp      RMS Disp    ~
  --------------------------------------------------------------------------------------------- ~
    Convergence Criteria    1.00e-06 *    3.00e-04 *             o    1.20e-03 *             o  ~
  --------------------------------------------------------------------------------------------- ~
      1    -115.71845946   -1.16e+02      2.56e-02      1.04e-02 o    9.71e-02      4.03e-02 o  ~
  ---------------------------------------------------------------------------------------------

	Writing optimization data to binary file.
	Structure for next step:
	Cartesian Geometry (in Angstrom)
	    H    -0.7437617132   1.1435044157   0.0000000168
	    O    -0.6864889381   0.1787840240  -0.0000000115
	    C     0.6855306475  -0.2028430696  -0.0000000026
	    H     1.3994342937   0.6476714554  -0.0000000054
	    H     0.9156361350  -0.8161615193  -0.8919464337
	    H     0.9156361241  -0.8161615059   0.8919464364
			--------------------------
			 OPTKING Finished Execution 
			--------------------------

    Structure for next step:
    Molecular point group: c1
    Full point group: C1

    Geometry (in Angstrom), charge = 0, multiplicity = 1:

    H       
    O             1          r1
    C             2          r2      1          a1
    H             3          r3      2          a2      1          d1
    H             3          r4      4          a3      2          d2
    H             3          r4      4          a3      2          d3

    a1        =  108.9414060450
    a2        =  114.4654743962
    a3        =  106.9065467041
    d1        =   -0.0000022261
    d2        =  122.6060929689
    d3        = -122.6060929396
    r1        =    0.9664189592
    r2        =    1.4241056778
    r3        =    1.1104203588
    r4        =    1.1066510221

gradient() will perform analytic gradient computation.

*** tstart() called on blogin3
*** at Mon Jan 28 19:36:51 2019

   => Loading Basis Set <=

    Name: CC-PVDZ
    Role: ORBITAL
    Keyword: BASIS
    atoms 1, 4-6 entry H          line    22 file /home/kmoore/miniconda/envs/esenv/share/psi4/basis/cc-pvdz.gbs 
    atoms 2      entry O          line   198 file /home/kmoore/miniconda/envs/esenv/share/psi4/basis/cc-pvdz.gbs 
    atoms 3      entry C          line   138 file /home/kmoore/miniconda/envs/esenv/share/psi4/basis/cc-pvdz.gbs 


         ---------------------------------------------------------
                                   SCF
            by Justin Turney, Rob Parrish, Andy Simmonett
                             and Daniel Smith
                              RKS Reference
                        1 Threads,    500 MiB Core
         ---------------------------------------------------------

  ==> Geometry <==

    Molecular point group: c1
    Full point group: C1

    Geometry (in Angstrom), charge = 0, multiplicity = 1:

       Center              X                  Y                   Z               Mass       
    ------------   -----------------  -----------------  -----------------  -----------------
         H           -0.000000000068     0.668054466981    -1.166860646781     1.007825032070
         O           -0.000000000068     0.668054466981    -0.200441687533    15.994914619560
         C           -0.000000000068    -0.678937349264     0.261824500521    12.000000000000
         H           -0.000000039337    -1.441990190122    -0.544887179916     1.007825032070
         H           -0.891946412747    -0.872291368106     0.887701728882     1.007825032070
         H            0.891946454026    -0.872291390273     0.887701663014     1.007825032070

  Running in c1 symmetry.

  Rotational constants: A =      4.25007  B =      0.81380  C =      0.78502 [cm^-1]
  Rotational constants: A = 127413.88838  B =  24396.96346  C =  23534.35875 [MHz]
  Nuclear repulsion =   39.990427353481749

  Charge       = 0
  Multiplicity = 1
  Electrons    = 18
  Nalpha       = 9
  Nbeta        = 9

  ==> Algorithm <==

  SCF Algorithm Type is PK.
  DIIS enabled.
  MOM disabled.
  Fractional occupation disabled.
  Guess Type is READ.
  Energy threshold   = 1.00e-08
  Density threshold  = 1.00e-08
  Integral threshold = 0.00e+00

  ==> Primary Basis <==

  Basis Set: CC-PVDZ
    Blend: CC-PVDZ
    Number of shells: 24
    Number of basis function: 48
    Number of Cartesian functions: 50
    Spherical Harmonics?: true
    Max angular momentum: 2

  ==> DFT Potential <==

   => Composite Functional: B3LYP <= 

    B3LYP Hyb-GGA Exchange-Correlation Functional

    P. J. Stephens, F. J. Devlin, C. F. Chabalowski, and M. J. Frisch, J. Phys. Chem. 98, 11623 (1994)

    Deriv               =              1
    GGA                 =           TRUE
    Meta                =          FALSE

    Exchange Hybrid     =           TRUE
    MP2 Hybrid          =          FALSE

   => Exchange Functionals <=

    0.0800   Slater exchange
    0.7200         Becke 88

   => Exact (HF) Exchange <=

    0.2000               HF 

   => Correlation Functionals <=

    0.1900   Vosko, Wilk & Nusair (VWN5_RPA)
    0.8100   Lee, Yang & Parr

   => Molecular Quadrature <=

    Radial Scheme       =       TREUTLER
    Pruning Scheme      =           FLAT
    Nuclear Scheme      =       TREUTLER

    BS radius alpha     =              1
    Pruning alpha       =              1
    Radial Points       =             75
    Spherical Points    =            302
    Total Points        =         133360
    Total Blocks        =           1088
    Max Points          =            255
    Max Functions       =             48

  Reading orbitals from file 180, no projection.

  ==> Pre-Iterations <==

   -------------------------------------------------------
    Irrep   Nso     Nmo     Nalpha   Nbeta   Ndocc  Nsocc
   -------------------------------------------------------
     A         48      48       0       0       0       0
   -------------------------------------------------------
    Total      48      48       9       9       9       0
   -------------------------------------------------------

  ==> Integral Setup <==

  Using in-core PK algorithm.
   Calculation information:
      Number of atoms:                   6
      Number of AO shells:              24
      Number of primitives:             64
      Number of atomic orbitals:        50
      Number of basis functions:        48

      Integral cutoff                 1.00e-12
      Number of threads:                 1

  Performing in-core PK
  Using 1384152 doubles for integral storage.
  We computed 45150 shell quartets total.
  Whereas there are 45150 unique shell quartets.

  ==> DiskJK: Disk-Based J/K Matrices <==

    J tasked:                  Yes
    K tasked:                  Yes
    wK tasked:                  No
    Memory (MB):               375
    Schwarz Cutoff:          1E-12

    OpenMP threads:              1

  Minimum eigenvalue in the overlap matrix is 1.7101497724E-02.
  Using Symmetric Orthogonalization.

  SCF Guess: Orbitals guess was supplied from a previous computation.

  ==> Iterations <==

                        Total Energy        Delta E     RMS |[F,P]|

   @RKS iter   0:  -111.47677535252936   -1.11477e+02   2.89655e-02 
   @RKS iter   1:  -114.63714472633689   -3.16037e+00   3.04562e-02 
   @RKS iter   2:  -114.15793147963615    4.79213e-01   3.66047e-02 DIIS
   @RKS iter   3:  -115.69542609794767   -1.53749e+00   5.32955e-03 DIIS
   @RKS iter   4:  -115.70960177893232   -1.41757e-02   3.42549e-03 DIIS
   @RKS iter   5:  -115.72048531095416   -1.08835e-02   2.19632e-04 DIIS
   @RKS iter   6:  -115.72053697911447   -5.16682e-05   4.07380e-05 DIIS
   @RKS iter   7:  -115.72053875594268   -1.77683e-06   5.41360e-06 DIIS
   @RKS iter   8:  -115.72053878461226   -2.86696e-08   7.98109e-07 DIIS
   @RKS iter   9:  -115.72053878529400   -6.81737e-10   6.94192e-08 DIIS
   @RKS iter  10:  -115.72053878530053   -6.53699e-12   1.32057e-08 DIIS
   @RKS iter  11:  -115.72053878530065   -1.13687e-13   2.39957e-09 DIIS

  ==> Post-Iterations <==

    Orbital Energies [Eh]
    ---------------------

    Doubly Occupied:                                                      

       1A    -19.128839     2A    -10.228005     3A     -1.007392  
       4A     -0.675928     5A     -0.500503     6A     -0.428128  
       7A     -0.417176     8A     -0.326829     9A     -0.262540  

    Virtual:                                                              

      10A      0.051960    11A      0.089340    12A      0.132879  
      13A      0.140652    14A      0.200547    15A      0.444222  
      16A      0.451185    17A      0.485534    18A      0.593822  
      19A      0.623859    20A      0.632713    21A      0.649662  
      22A      0.880839    23A      0.893471    24A      0.962088  
      25A      1.020127    26A      1.061391    27A      1.166778  
      28A      1.365650    29A      1.401842    30A      1.414283  
      31A      1.591550    32A      1.605125    33A      1.620822  
      34A      1.641675    35A      1.756838    36A      1.809823  
      37A      2.040781    38A      2.052667    39A      2.083008  
      40A      2.142036    41A      2.379006    42A      2.379773  
      43A      2.420872    44A      2.934333    45A      3.008370  
      46A      3.045436    47A      3.211739    48A      3.673424  

    Final Occupation by Irrep:
              A 
    DOCC [     9 ]

  Energy converged.

  @RKS Final Energy:  -115.72053878530065

   => Energetics <=

    Nuclear Repulsion Energy =             39.9904273534817492
    One-Electron Energy =                -236.4569687240615110
    Two-Electron Energy =                  93.2944135760723867
    DFT Exchange-Correlation Energy =     -12.5484109907932684
    Empirical Dispersion Energy =           0.0000000000000000
    VV10 Nonlocal Energy =                  0.0000000000000000
    Total Energy =                       -115.7205387853006471



Properties will be evaluated at   0.000000,   0.000000,   0.000000 [a0]

Properties computed using the SCF density matrix

  Nuclear Dipole Moment: [e a0]
     X:     0.0000      Y:    -2.3578      Z:     0.0587

  Electronic Dipole Moment: [e a0]
     X:    -0.0000      Y:     1.8838      Z:    -0.5036

  Dipole Moment: [e a0]
     X:    -0.0000      Y:    -0.4740      Z:    -0.4449     Total:     0.6501

  Dipole Moment: [D]
     X:    -0.0000      Y:    -1.2047      Z:    -1.1309     Total:     1.6523


*** tstop() called on blogin3 at Mon Jan 28 19:36:57 2019
Module time:
	user time   =       5.34 seconds =       0.09 minutes
	system time =       0.06 seconds =       0.00 minutes
	total time  =          6 seconds =       0.10 minutes
Total time:
	user time   =      12.79 seconds =       0.21 minutes
	system time =       0.15 seconds =       0.00 minutes
	total time  =         14 seconds =       0.23 minutes

*** tstart() called on blogin3
*** at Mon Jan 28 19:36:57 2019


         ------------------------------------------------------------
                                   SCF GRAD                          
                          Rob Parrish, Justin Turney,                
                       Andy Simmonett, and Alex Sokolov              
         ------------------------------------------------------------

  ==> Geometry <==

    Molecular point group: c1
    Full point group: C1

    Geometry (in Angstrom), charge = 0, multiplicity = 1:

       Center              X                  Y                   Z               Mass       
    ------------   -----------------  -----------------  -----------------  -----------------
         H           -0.000000000068     0.668054466981    -1.166860646781     1.007825032070
         O           -0.000000000068     0.668054466981    -0.200441687533    15.994914619560
         C           -0.000000000068    -0.678937349264     0.261824500521    12.000000000000
         H           -0.000000039337    -1.441990190122    -0.544887179916     1.007825032070
         H           -0.891946412747    -0.872291368106     0.887701728882     1.007825032070
         H            0.891946454026    -0.872291390273     0.887701663014     1.007825032070

  Nuclear repulsion =   39.990427353481749

  ==> Basis Set <==

  Basis Set: CC-PVDZ
    Blend: CC-PVDZ
    Number of shells: 24
    Number of basis function: 48
    Number of Cartesian functions: 50
    Spherical Harmonics?: true
    Max angular momentum: 2

  ==> DirectJKGrad: Integral-Direct SCF Gradients <==

    Gradient:                    1
    J tasked:                  Yes
    K tasked:                  Yes
    wK tasked:                  No
    Integrals threads:           1
    Schwarz Cutoff:          0E+00

  ==> DFT Potential <==

   => Composite Functional: B3LYP <= 

    B3LYP Hyb-GGA Exchange-Correlation Functional

    P. J. Stephens, F. J. Devlin, C. F. Chabalowski, and M. J. Frisch, J. Phys. Chem. 98, 11623 (1994)

    Deriv               =              1
    GGA                 =           TRUE
    Meta                =          FALSE

    Exchange Hybrid     =           TRUE
    MP2 Hybrid          =          FALSE

   => Exchange Functionals <=

    0.0800   Slater exchange
    0.7200         Becke 88

   => Exact (HF) Exchange <=

    0.2000               HF 

   => Correlation Functionals <=

    0.1900   Vosko, Wilk & Nusair (VWN5_RPA)
    0.8100   Lee, Yang & Parr

   => Molecular Quadrature <=

    Radial Scheme       =       TREUTLER
    Pruning Scheme      =           FLAT
    Nuclear Scheme      =       TREUTLER

    BS radius alpha     =              1
    Pruning alpha       =              1
    Radial Points       =             75
    Spherical Points    =            302
    Total Points        =         133360
    Total Blocks        =           1088
    Max Points          =            255
    Max Functions       =             48


  -Total Gradient:
     Atom            X                  Y                   Z
    ------   -----------------  -----------------  -----------------
       1       -0.000000000877     0.001896686775    -0.001675658313
       2        0.000000001712     0.002733960629     0.000105572309
       3       -0.000000001034     0.001739625496     0.001276326251
       4       -0.000000000081    -0.004174951893    -0.000307858513
       5       -0.000005262904    -0.001100454373     0.000298365218
       6        0.000005263184    -0.001100453141     0.000298365310


*** tstop() called on blogin3 at Mon Jan 28 19:36:59 2019
Module time:
	user time   =       1.92 seconds =       0.03 minutes
	system time =       0.00 seconds =       0.00 minutes
	total time  =          2 seconds =       0.03 minutes
Total time:
	user time   =      14.71 seconds =       0.25 minutes
	system time =       0.15 seconds =       0.00 minutes
	total time  =         16 seconds =       0.27 minutes

			-----------------------------------------
			 OPTKING 2.0: for geometry optimizations 
			  - R.A. King,  Bethel University        
			-----------------------------------------

	Previous internal coordinate definitions found.
	---Fragment 1 Geometry and Gradient---
	 H          -0.0000000001        1.2624399844       -2.2050470577
	 O          -0.0000000001        1.2624399844       -0.3787798951
	 C          -0.0000000001       -1.2830056515        0.4947766009
	 H          -0.0000000743       -2.7249665456       -1.0296875434
	 H          -1.6855344453       -1.6483917938        1.6775131553
	 H           1.6855345233       -1.6483918357        1.6775130308
	            -0.0000000009        0.0018966868       -0.0016756583
	             0.0000000017        0.0027339606        0.0001055723
	            -0.0000000010        0.0017396255        0.0012763263
	            -0.0000000001       -0.0041749519       -0.0003078585
	            -0.0000052629       -0.0011004544        0.0002983652
	             0.0000052632       -0.0011004531        0.0002983653

	---Fragment 1 Intrafragment Coordinates---
	 - Coordinate -           - BOHR/RAD -       - ANG/DEG -
	 R(1,2)           =         1.826267	       0.966419
	 R(2,3)           =         2.691170	       1.424106
	 R(3,4)           =         2.098390	       1.110420
	 R(3,5)           =         2.091267	       1.106651
	 R(3,6)           =         2.091267	       1.106651
	 B(1,2,3)         =         1.901386	     108.941406
	 B(2,3,4)         =         1.997799	     114.465474
	 B(2,3,5)         =         1.927130	     110.416400
	 B(2,3,6)         =         1.927130	     110.416400
	 B(4,3,5)         =         1.865871	     106.906547
	 B(4,3,6)         =         1.865871	     106.906547
	 B(5,3,6)         =         1.874682	     107.411383
	 D(1,2,3,4)       =        -0.000000	      -0.000000
	 D(1,2,3,5)       =        -2.106301	    -120.682171
	 D(1,2,3,6)       =         2.106301	     120.682167

	Current energy   :      -115.7205387853

	Energy change for the previous step:
		Projected    :        -0.0026337462
		Actual       :        -0.0020793291

	Performing Bofill update.
	Previous computed or guess Hessian on step 1.
	Steps to be used in Hessian update: 1
	Taking PRFO optimization step.
	Maximizing along 1 lowest eigenvalue of Hessian.

 RFO min eigenvalues
 -0.000255  0.000000  0.000000  0.005210  0.097769  0.100969  0.159663  0.159709
  0.159939  0.192644  0.323808  0.323892  0.327190  0.483791  0.491240

 RFO max eigenvalues
 -0.000000  0.000000
	|RFO target step|  :        0.0375006677
	RFO gradient       :       -0.0068017255
	RFO hessian        :        0.1811858803
	Projected Delta(E) :       -0.0001274891

	Back-transformation to cartesian coordinates...
	Could not converge backtransformation.
	Using first guess instead.

	--- Internal Coordinate Step in ANG or DEG, aJ/ANG or AJ/DEG ---
	 ---------------------------------------------------------------------------
	   Coordinate                Previous        Force       Change         New 
	   ----------                --------       ------       ------       ------
	    1 R(1,2)          =      0.966419    -0.013787    -0.001735     0.964684
	    2 R(2,3)          =      1.424106    -0.040301    -0.004409     1.419696
	    3 R(3,4)          =      1.110420    -0.025473    -0.004695     1.105725
	    4 R(3,5)          =      1.106651    -0.003011    -0.000618     1.106033
	    5 R(3,6)          =      1.106651    -0.003011    -0.000618     1.106033
	    6 B(1,2,3)        =    108.941406    -0.000264    -0.980947   107.960459
	    7 B(2,3,4)        =    114.465474    -0.000287    -1.069244   113.396231
	    8 B(2,3,5)        =    110.416400    -0.000038    -0.132280   110.284121
	    9 B(2,3,6)        =    110.416400    -0.000038    -0.132279   110.284122
	   10 B(4,3,5)        =    106.906547     0.000152     0.535158   107.441704
	   11 B(4,3,6)        =    106.906547     0.000152     0.535158   107.441705
	   12 B(5,3,6)        =    107.411383     0.000091     0.369346   107.780729
	   13 D(1,2,3,4)      =      0.000000    -0.000000     0.000000     0.000000
	   14 D(1,2,3,5)      =   -120.682171     0.000007     0.145539  -120.536632
	   15 D(1,2,3,6)      =    120.682167    -0.000007    -0.145548   120.536619
	 ---------------------------------------------------------------------------
	Successfully symmetrized geometry.

  ==> Convergence Check <==

  Measures of convergence in internal coordinates in au.
  Criteria marked as inactive (o), active & met (*), and active & unmet ( ).
  ---------------------------------------------------------------------------------------------
   Step     Total Energy     Delta E     MAX Force     RMS Force      MAX Disp      RMS Disp   
  ---------------------------------------------------------------------------------------------
    Convergence Criteria    1.00e-06 *    3.00e-04 *             o    1.20e-03 *             o
  ---------------------------------------------------------------------------------------------
      2    -115.72053879   -2.08e-03      4.89e-03      2.21e-03 o    1.87e-02      8.34e-03 o  ~
  ---------------------------------------------------------------------------------------------

	Writing optimization data to binary file.
	Structure for next step:
	Cartesian Geometry (in Angstrom)
	    H     0.0000000294   0.6477979990  -1.1616789844
	    O    -0.0000000266   0.6643628295  -0.1971368139
	    C    -0.0000000032  -0.6784347333   0.2637670137
	    H    -0.0000000480  -1.4231804867  -0.5535343215
	    H    -0.8935539502  -0.8699734803   0.8868107850
	    H     0.8935540004  -0.8699734919   0.8868106993
			--------------------------
			 OPTKING Finished Execution 
			--------------------------

    Structure for next step:
    Molecular point group: c1
    Full point group: C1

    Geometry (in Angstrom), charge = 0, multiplicity = 1:

    H       
    O             1          r1
    C             2          r2      1          a1
    H             3          r3      2          a2      1          d1
    H             3          r4      4          a3      2          d2
    H             3          r4      4          a3      2          d3

    a1        =  107.9604587537
    a2        =  113.3962308646
    a3        =  107.4417045120
    d1        =   -0.0000067333
    d2        =  122.1319139561
    d3        = -122.1319148940
    r1        =    0.9646844003
    r2        =    1.4196963171
    r3        =    1.1057249702
    r4        =    1.1060331313

gradient() will perform analytic gradient computation.

*** tstart() called on blogin3
*** at Mon Jan 28 19:36:59 2019

   => Loading Basis Set <=

    Name: CC-PVDZ
    Role: ORBITAL
    Keyword: BASIS
    atoms 1, 4-6 entry H          line    22 file /home/kmoore/miniconda/envs/esenv/share/psi4/basis/cc-pvdz.gbs 
    atoms 2      entry O          line   198 file /home/kmoore/miniconda/envs/esenv/share/psi4/basis/cc-pvdz.gbs 
    atoms 3      entry C          line   138 file /home/kmoore/miniconda/envs/esenv/share/psi4/basis/cc-pvdz.gbs 


         ---------------------------------------------------------
                                   SCF
            by Justin Turney, Rob Parrish, Andy Simmonett
                             and Daniel Smith
                              RKS Reference
                        1 Threads,    500 MiB Core
         ---------------------------------------------------------

  ==> Geometry <==

    Molecular point group: c1
    Full point group: C1

    Geometry (in Angstrom), charge = 0, multiplicity = 1:

       Center              X                  Y                   Z               Mass       
    ------------   -----------------  -----------------  -----------------  -----------------
         H            0.000000000143     0.669242778084    -1.152570461916     1.007825032070
         O            0.000000000143     0.669242778084    -0.187886061583    15.994914619560
         C            0.000000000143    -0.681271098840     0.249892308283    12.000000000000
         H           -0.000000119116    -1.411872969353    -0.580076737273     1.007825032070
         H           -0.893553917438    -0.883480008837     0.869555314046     1.007825032070
         H            0.893554032429    -0.883480084578     0.869555123927     1.007825032070

  Running in c1 symmetry.

  Rotational constants: A =      4.23352  B =      0.82152  C =      0.79206 [cm^-1]
  Rotational constants: A = 126917.65202  B =  24628.67757  C =  23745.51084 [MHz]
  Nuclear repulsion =   40.119162863194774

  Charge       = 0
  Multiplicity = 1
  Electrons    = 18
  Nalpha       = 9
  Nbeta        = 9

  ==> Algorithm <==

  SCF Algorithm Type is PK.
  DIIS enabled.
  MOM disabled.
  Fractional occupation disabled.
  Guess Type is READ.
  Energy threshold   = 1.00e-08
  Density threshold  = 1.00e-08
  Integral threshold = 0.00e+00

  ==> Primary Basis <==

  Basis Set: CC-PVDZ
    Blend: CC-PVDZ
    Number of shells: 24
    Number of basis function: 48
    Number of Cartesian functions: 50
    Spherical Harmonics?: true
    Max angular momentum: 2

  ==> DFT Potential <==

   => Composite Functional: B3LYP <= 

    B3LYP Hyb-GGA Exchange-Correlation Functional

    P. J. Stephens, F. J. Devlin, C. F. Chabalowski, and M. J. Frisch, J. Phys. Chem. 98, 11623 (1994)

    Deriv               =              1
    GGA                 =           TRUE
    Meta                =          FALSE

    Exchange Hybrid     =           TRUE
    MP2 Hybrid          =          FALSE

   => Exchange Functionals <=

    0.0800   Slater exchange
    0.7200         Becke 88

   => Exact (HF) Exchange <=

    0.2000               HF 

   => Correlation Functionals <=

    0.1900   Vosko, Wilk & Nusair (VWN5_RPA)
    0.8100   Lee, Yang & Parr

   => Molecular Quadrature <=

    Radial Scheme       =       TREUTLER
    Pruning Scheme      =           FLAT
    Nuclear Scheme      =       TREUTLER

    BS radius alpha     =              1
    Pruning alpha       =              1
    Radial Points       =             75
    Spherical Points    =            302
    Total Points        =         133354
    Total Blocks        =           1077
    Max Points          =            256
    Max Functions       =             48

  Reading orbitals from file 180, no projection.

  ==> Pre-Iterations <==

   -------------------------------------------------------
    Irrep   Nso     Nmo     Nalpha   Nbeta   Ndocc  Nsocc
   -------------------------------------------------------
     A         48      48       0       0       0       0
   -------------------------------------------------------
    Total      48      48       9       9       9       0
   -------------------------------------------------------

  ==> Integral Setup <==

  Using in-core PK algorithm.
   Calculation information:
      Number of atoms:                   6
      Number of AO shells:              24
      Number of primitives:             64
      Number of atomic orbitals:        50
      Number of basis functions:        48

      Integral cutoff                 1.00e-12
      Number of threads:                 1

  Performing in-core PK
  Using 1384152 doubles for integral storage.
  We computed 45150 shell quartets total.
  Whereas there are 45150 unique shell quartets.

  ==> DiskJK: Disk-Based J/K Matrices <==

    J tasked:                  Yes
    K tasked:                  Yes
    wK tasked:                  No
    Memory (MB):               375
    Schwarz Cutoff:          1E-12

    OpenMP threads:              1

  Minimum eigenvalue in the overlap matrix is 1.6900476539E-02.
  Using Symmetric Orthogonalization.

  SCF Guess: Orbitals guess was supplied from a previous computation.

  ==> Iterations <==

                        Total Energy        Delta E     RMS |[F,P]|

   @RKS iter   0:  -115.72450276433791   -1.15725e+02   4.32115e-04 
   @RKS iter   1:  -115.72067185215514    3.83091e-03   5.97732e-05 
   @RKS iter   2:  -115.72067373972698   -1.88757e-06   5.64809e-05 DIIS
   @RKS iter   3:  -115.72067729509227   -3.55537e-06   8.20749e-06 DIIS
   @RKS iter   4:  -115.72067736187526   -6.67830e-08   3.53348e-06 DIIS
   @RKS iter   5:  -115.72067737110964   -9.23438e-09   1.42821e-06 DIIS
   @RKS iter   6:  -115.72067737286295   -1.75331e-09   1.00513e-07 DIIS
   @RKS iter   7:  -115.72067737287516   -1.22071e-11   1.26445e-08 DIIS
   @RKS iter   8:  -115.72067737287536   -1.98952e-13   2.40008e-09 DIIS

  ==> Post-Iterations <==

    Orbital Energies [Eh]
    ---------------------

    Doubly Occupied:                                                      

       1A    -19.128224     2A    -10.227068     3A     -1.009431  
       4A     -0.675507     5A     -0.501091     6A     -0.429305  
       7A     -0.418334     8A     -0.327292     9A     -0.262249  

    Virtual:                                                              

      10A      0.051398    11A      0.090770    12A      0.134302  
      13A      0.140676    14A      0.201682    15A      0.445473  
      16A      0.451549    17A      0.487071    18A      0.594377  
      19A      0.623952    20A      0.634313    21A      0.649954  
      22A      0.879671    23A      0.894758    24A      0.958740  
      25A      1.021037    26A      1.063066    27A      1.162047  
      28A      1.363199    29A      1.411766    30A      1.412417  
      31A      1.591927    32A      1.609374    33A      1.624099  
      34A      1.641881    35A      1.760728    36A      1.807965  
      37A      2.034929    38A      2.060626    39A      2.089719  
      40A      2.146997    41A      2.379869    42A      2.388425  
      43A      2.422327    44A      2.941373    45A      3.008616  
      46A      3.056245    47A      3.209543    48A      3.675651  

    Final Occupation by Irrep:
              A 
    DOCC [     9 ]

  Energy converged.

  @RKS Final Energy:  -115.72067737287536

   => Energetics <=

    Nuclear Repulsion Energy =             40.1191628631947736
    One-Electron Energy =                -236.7051573781227205
    Two-Electron Energy =                  93.4184667820988608
    DFT Exchange-Correlation Energy =     -12.5531496400462519
    Empirical Dispersion Energy =           0.0000000000000000
    VV10 Nonlocal Energy =                  0.0000000000000000
    Total Energy =                       -115.7206773728753575



Properties will be evaluated at   0.000000,   0.000000,   0.000000 [a0]

Properties computed using the SCF density matrix

  Nuclear Dipole Moment: [e a0]
     X:    -0.0000      Y:    -2.3494      Z:     0.0052

  Electronic Dipole Moment: [e a0]
     X:    -0.0000      Y:     1.8779      Z:    -0.4584

  Dipole Moment: [e a0]
     X:    -0.0000      Y:    -0.4715      Z:    -0.4532     Total:     0.6540

  Dipole Moment: [D]
     X:    -0.0000      Y:    -1.1985      Z:    -1.1519     Total:     1.6624


*** tstop() called on blogin3 at Mon Jan 28 19:37:03 2019
Module time:
	user time   =       4.19 seconds =       0.07 minutes
	system time =       0.04 seconds =       0.00 minutes
	total time  =          4 seconds =       0.07 minutes
Total time:
	user time   =      18.91 seconds =       0.32 minutes
	system time =       0.19 seconds =       0.00 minutes
	total time  =         20 seconds =       0.33 minutes

*** tstart() called on blogin3
*** at Mon Jan 28 19:37:03 2019


         ------------------------------------------------------------
                                   SCF GRAD                          
                          Rob Parrish, Justin Turney,                
                       Andy Simmonett, and Alex Sokolov              
         ------------------------------------------------------------

  ==> Geometry <==

    Molecular point group: c1
    Full point group: C1

    Geometry (in Angstrom), charge = 0, multiplicity = 1:

       Center              X                  Y                   Z               Mass       
    ------------   -----------------  -----------------  -----------------  -----------------
         H            0.000000000143     0.669242778084    -1.152570461916     1.007825032070
         O            0.000000000143     0.669242778084    -0.187886061583    15.994914619560
         C            0.000000000143    -0.681271098840     0.249892308283    12.000000000000
         H           -0.000000119116    -1.411872969353    -0.580076737273     1.007825032070
         H           -0.893553917438    -0.883480008837     0.869555314046     1.007825032070
         H            0.893554032429    -0.883480084578     0.869555123927     1.007825032070

  Nuclear repulsion =   40.119162863194774

  ==> Basis Set <==

  Basis Set: CC-PVDZ
    Blend: CC-PVDZ
    Number of shells: 24
    Number of basis function: 48
    Number of Cartesian functions: 50
    Spherical Harmonics?: true
    Max angular momentum: 2

  ==> DirectJKGrad: Integral-Direct SCF Gradients <==

    Gradient:                    1
    J tasked:                  Yes
    K tasked:                  Yes
    wK tasked:                  No
    Integrals threads:           1
    Schwarz Cutoff:          0E+00

  ==> DFT Potential <==

   => Composite Functional: B3LYP <= 

    B3LYP Hyb-GGA Exchange-Correlation Functional

    P. J. Stephens, F. J. Devlin, C. F. Chabalowski, and M. J. Frisch, J. Phys. Chem. 98, 11623 (1994)

    Deriv               =              1
    GGA                 =           TRUE
    Meta                =          FALSE

    Exchange Hybrid     =           TRUE
    MP2 Hybrid          =          FALSE

   => Exchange Functionals <=

    0.0800   Slater exchange
    0.7200         Becke 88

   => Exact (HF) Exchange <=

    0.2000               HF 

   => Correlation Functionals <=

    0.1900   Vosko, Wilk & Nusair (VWN5_RPA)
    0.8100   Lee, Yang & Parr

   => Molecular Quadrature <=

    Radial Scheme       =       TREUTLER
    Pruning Scheme      =           FLAT
    Nuclear Scheme      =       TREUTLER

    BS radius alpha     =              1
    Pruning alpha       =              1
    Radial Points       =             75
    Spherical Points    =            302
    Total Points        =         133354
    Total Blocks        =           1077
    Max Points          =            256
    Max Functions       =             48


  -Total Gradient:
     Atom            X                  Y                   Z
    ------   -----------------  -----------------  -----------------
       1       -0.000000000576    -0.000013251496    -0.000036829173
       2        0.000000001116    -0.000143791524     0.000463241237
       3        0.000000000010     0.000950391598    -0.000328056725
       4        0.000000000306    -0.000661661987     0.000116081381
       5       -0.000009981698    -0.000068477497    -0.000109249555
       6        0.000009980845    -0.000068476819    -0.000109250047


*** tstop() called on blogin3 at Mon Jan 28 19:37:05 2019
Module time:
	user time   =       1.91 seconds =       0.03 minutes
	system time =       0.00 seconds =       0.00 minutes
	total time  =          2 seconds =       0.03 minutes
Total time:
	user time   =      20.82 seconds =       0.35 minutes
	system time =       0.19 seconds =       0.00 minutes
	total time  =         22 seconds =       0.37 minutes

			-----------------------------------------
			 OPTKING 2.0: for geometry optimizations 
			  - R.A. King,  Bethel University        
			-----------------------------------------

	Previous internal coordinate definitions found.
	---Fragment 1 Geometry and Gradient---
	 H           0.0000000003        1.2646855670       -2.1780425219
	 O           0.0000000003        1.2646855670       -0.3550532006
	 C           0.0000000003       -1.2874157991        0.4722280254
	 H          -0.0000002251       -2.6680532465       -1.0961861695
	 H          -1.6885721889       -1.6695352606        1.6432214009
	 H           1.6885724062       -1.6695354037        1.6432210417
	            -0.0000000006       -0.0000132515       -0.0000368292
	             0.0000000011       -0.0001437915        0.0004632412
	             0.0000000000        0.0009503916       -0.0003280567
	             0.0000000003       -0.0006616620        0.0001160814
	            -0.0000099817       -0.0000684775       -0.0001092496
	             0.0000099808       -0.0000684768       -0.0001092500

	---Fragment 1 Intrafragment Coordinates---
	 - Coordinate -           - BOHR/RAD -       - ANG/DEG -
	 R(1,2)           =         1.822989	       0.964684
	 R(2,3)           =         2.682837	       1.419696
	 R(3,4)           =         2.089517	       1.105725
	 R(3,5)           =         2.090100	       1.106033
	 R(3,6)           =         2.090100	       1.106033
	 B(1,2,3)         =         1.884265	     107.960459
	 B(2,3,4)         =         1.979138	     113.396231
	 B(2,3,5)         =         1.924821	     110.284121
	 B(2,3,6)         =         1.924821	     110.284122
	 B(4,3,5)         =         1.875211	     107.441705
	 B(4,3,6)         =         1.875211	     107.441705
	 B(5,3,6)         =         1.881129	     107.780729
	 D(1,2,3,4)       =        -0.000000	      -0.000000
	 D(1,2,3,5)       =        -2.103761	    -120.536632
	 D(1,2,3,6)       =         2.103761	     120.536619

	Current energy   :      -115.7206773729

	Energy change for the previous step:
		Projected    :        -0.0001274891
		Actual       :        -0.0001385876

	Performing Bofill update.
	Previous computed or guess Hessian on step 1.
	Steps to be used in Hessian update: 2 1
	Taking PRFO optimization step.
	Maximizing along 1 lowest eigenvalue of Hessian.

 RFO min eigenvalues
 -0.000006 -0.000000  0.000000  0.005210  0.095056  0.100960  0.159057  0.159653
  0.161967  0.193389  0.323892  0.324006  0.325101  0.483729  0.490816

 RFO max eigenvalues
 -0.000000  0.000000
	|RFO target step|  :        0.0058647593
	RFO gradient       :       -0.0010383457
	RFO hessian        :        0.1770423511
	Projected Delta(E) :       -0.0000030448

	Back-transformation to cartesian coordinates...
	Could not converge backtransformation.
	Using first guess instead.

	--- Internal Coordinate Step in ANG or DEG, aJ/ANG or AJ/DEG ---
	 ---------------------------------------------------------------------------
	   Coordinate                Previous        Force       Change         New 
	   ----------                --------       ------       ------       ------
	    1 R(1,2)          =      0.964684    -0.000287    -0.000087     0.964597
	    2 R(2,3)          =      1.419696     0.002298     0.000463     1.420159
	    3 R(3,4)          =      1.105725    -0.002878    -0.000594     1.105131
	    4 R(3,5)          =      1.106033     0.000334     0.000049     1.106082
	    5 R(3,6)          =      1.106033     0.000334     0.000049     1.106082
	    6 B(1,2,3)        =    107.960459     0.000002     0.028815   107.989274
	    7 B(2,3,4)        =    113.396231    -0.000063    -0.270571   113.125660
	    8 B(2,3,5)        =    110.284121     0.000007     0.035778   110.319899
	    9 B(2,3,6)        =    110.284122     0.000007     0.035778   110.319900
	   10 B(4,3,5)        =    107.441705     0.000026     0.114970   107.556674
	   11 B(4,3,6)        =    107.441705     0.000026     0.114970   107.556674
	   12 B(5,3,6)        =    107.780729    -0.000000    -0.017846   107.762883
	   13 D(1,2,3,4)      =      0.000000    -0.000000     0.000000     0.000000
	   14 D(1,2,3,5)      =   -120.536632     0.000001     0.011399  -120.525233
	   15 D(1,2,3,6)      =    120.536619    -0.000001    -0.011410   120.525210
	 ---------------------------------------------------------------------------
	Successfully symmetrized geometry.

  ==> Convergence Check <==

  Measures of convergence in internal coordinates in au.
  Criteria marked as inactive (o), active & met (*), and active & unmet ( ).
  ---------------------------------------------------------------------------------------------
   Step     Total Energy     Delta E     MAX Force     RMS Force      MAX Disp      RMS Disp   
  ---------------------------------------------------------------------------------------------
    Convergence Criteria    1.00e-06 *    3.00e-04 *             o    1.20e-03 *             o
  ---------------------------------------------------------------------------------------------
      3    -115.72067737   -1.39e-04      8.25e-04      2.77e-04 o    4.72e-03      1.50e-03 o  ~
  ---------------------------------------------------------------------------------------------

	Writing optimization data to binary file.
	Structure for next step:
	Cartesian Geometry (in Angstrom)
	    H     0.0000000384   0.6681933334  -1.1532595495
	    O    -0.0000000315   0.6687577667  -0.1886626546
	    C    -0.0000000062  -0.6817188253   0.2507280161
	    H    -0.0000001308  -1.4089087738  -0.5814435894
	    H    -0.8934920648  -0.8839710241   0.8705537396
	    H     0.8934921912  -0.8839710823   0.8705535234
			--------------------------
			 OPTKING Finished Execution 
			--------------------------

    Structure for next step:
    Molecular point group: c1
    Full point group: C1

    Geometry (in Angstrom), charge = 0, multiplicity = 1:

    H       
    O             1          r1
    C             2          r2      1          a1
    H             3          r3      2          a2      1          d1
    H             3          r4      4          a3      2          d2
    H             3          r4      4          a3      2          d3

    a1        =  107.9892739040
    a2        =  113.1256598103
    a3        =  107.5566744694
    d1        =   -0.0000121527
    d2        =  122.0845225285
    d3        = -122.0845238899
    r1        =    0.9645970600
    r2        =    1.4201588598
    r3        =    1.1051311244
    r4        =    1.1060822492

gradient() will perform analytic gradient computation.

*** tstart() called on blogin3
*** at Mon Jan 28 19:37:05 2019

   => Loading Basis Set <=

    Name: CC-PVDZ
    Role: ORBITAL
    Keyword: BASIS
    atoms 1, 4-6 entry H          line    22 file /home/kmoore/miniconda/envs/esenv/share/psi4/basis/cc-pvdz.gbs 
    atoms 2      entry O          line   198 file /home/kmoore/miniconda/envs/esenv/share/psi4/basis/cc-pvdz.gbs 
    atoms 3      entry C          line   138 file /home/kmoore/miniconda/envs/esenv/share/psi4/basis/cc-pvdz.gbs 


         ---------------------------------------------------------
                                   SCF
            by Justin Turney, Rob Parrish, Andy Simmonett
                             and Daniel Smith
                              RKS Reference
                        1 Threads,    500 MiB Core
         ---------------------------------------------------------

  ==> Geometry <==

    Molecular point group: c1
    Full point group: C1

    Geometry (in Angstrom), charge = 0, multiplicity = 1:

       Center              X                  Y                   Z               Mass       
    ------------   -----------------  -----------------  -----------------  -----------------
         H            0.000000000170     0.669248641235    -1.152791554797     1.007825032070
         O            0.000000000170     0.669248641235    -0.188194494781    15.994914619560
         C            0.000000000170    -0.681484828708     0.250405870305    12.000000000000
         H           -0.000000215398    -1.408187708067    -0.582191107369     1.007825032070
         H           -0.893492023497    -0.884099646159     0.870113205572     1.007825032070
         H            0.893492234016    -0.884099779211     0.870112859033     1.007825032070

  Running in c1 symmetry.

  Rotational constants: A =      4.23208  B =      0.82139  C =      0.79187 [cm^-1]
  Rotational constants: A = 126874.43718  B =  24624.54293  C =  23739.65790 [MHz]
  Nuclear repulsion =   40.115886001613795

  Charge       = 0
  Multiplicity = 1
  Electrons    = 18
  Nalpha       = 9
  Nbeta        = 9

  ==> Algorithm <==

  SCF Algorithm Type is PK.
  DIIS enabled.
  MOM disabled.
  Fractional occupation disabled.
  Guess Type is READ.
  Energy threshold   = 1.00e-08
  Density threshold  = 1.00e-08
  Integral threshold = 0.00e+00

  ==> Primary Basis <==

  Basis Set: CC-PVDZ
    Blend: CC-PVDZ
    Number of shells: 24
    Number of basis function: 48
    Number of Cartesian functions: 50
    Spherical Harmonics?: true
    Max angular momentum: 2

  ==> DFT Potential <==

   => Composite Functional: B3LYP <= 

    B3LYP Hyb-GGA Exchange-Correlation Functional

    P. J. Stephens, F. J. Devlin, C. F. Chabalowski, and M. J. Frisch, J. Phys. Chem. 98, 11623 (1994)

    Deriv               =              1
    GGA                 =           TRUE
    Meta                =          FALSE

    Exchange Hybrid     =           TRUE
    MP2 Hybrid          =          FALSE

   => Exchange Functionals <=

    0.0800   Slater exchange
    0.7200         Becke 88

   => Exact (HF) Exchange <=

    0.2000               HF 

   => Correlation Functionals <=

    0.1900   Vosko, Wilk & Nusair (VWN5_RPA)
    0.8100   Lee, Yang & Parr

   => Molecular Quadrature <=

    Radial Scheme       =       TREUTLER
    Pruning Scheme      =           FLAT
    Nuclear Scheme      =       TREUTLER

    BS radius alpha     =              1
    Pruning alpha       =              1
    Radial Points       =             75
    Spherical Points    =            302
    Total Points        =         133354
    Total Blocks        =           1078
    Max Points          =            256
    Max Functions       =             48

  Reading orbitals from file 180, no projection.

  ==> Pre-Iterations <==

   -------------------------------------------------------
    Irrep   Nso     Nmo     Nalpha   Nbeta   Ndocc  Nsocc
   -------------------------------------------------------
     A         48      48       0       0       0       0
   -------------------------------------------------------
    Total      48      48       9       9       9       0
   -------------------------------------------------------

  ==> Integral Setup <==

  Using in-core PK algorithm.
   Calculation information:
      Number of atoms:                   6
      Number of AO shells:              24
      Number of primitives:             64
      Number of atomic orbitals:        50
      Number of basis functions:        48

      Integral cutoff                 1.00e-12
      Number of threads:                 1

  Performing in-core PK
  Using 1384152 doubles for integral storage.
  We computed 45150 shell quartets total.
  Whereas there are 45150 unique shell quartets.

  ==> DiskJK: Disk-Based J/K Matrices <==

    J tasked:                  Yes
    K tasked:                  Yes
    wK tasked:                  No
    Memory (MB):               375
    Schwarz Cutoff:          1E-12

    OpenMP threads:              1

  Minimum eigenvalue in the overlap matrix is 1.6897819176E-02.
  Using Symmetric Orthogonalization.

  SCF Guess: Orbitals guess was supplied from a previous computation.

  ==> Iterations <==

                        Total Energy        Delta E     RMS |[F,P]|

   @RKS iter   0:  -115.72065077726896   -1.15721e+02   4.44100e-05 
   @RKS iter   1:  -115.72068042014415   -2.96429e-05   1.05050e-05 
   @RKS iter   2:  -115.72068031352252    1.06622e-07   1.60730e-05 DIIS
   @RKS iter   3:  -115.72068053050610   -2.16984e-07   3.90658e-07 DIIS
   @RKS iter   4:  -115.72068053070521   -1.99108e-10   7.91354e-08 DIIS
   @RKS iter   5:  -115.72068053071420   -8.99547e-12   2.01738e-08 DIIS
   @RKS iter   6:  -115.72068053071439   -1.84741e-13   1.05789e-08 DIIS
   @RKS iter   7:  -115.72068053071470   -3.12639e-13   1.00424e-09 DIIS

  ==> Post-Iterations <==

    Orbital Energies [Eh]
    ---------------------

    Doubly Occupied:                                                      

       1A    -19.128062     2A    -10.227079     3A     -1.009219  
       4A     -0.675518     5A     -0.500938     6A     -0.429217  
       7A     -0.418621     8A     -0.327100     9A     -0.262207  

    Virtual:                                                              

      10A      0.051306    11A      0.090778    12A      0.134599  
      13A      0.140630    14A      0.201363    15A      0.445685  
      16A      0.451496    17A      0.486903    18A      0.594530  
      19A      0.623922    20A      0.634398    21A      0.649716  
      22A      0.879319    23A      0.895026    24A      0.958728  
      25A      1.021161    26A      1.063112    27A      1.162162  
      28A      1.363343    29A      1.412038    30A      1.413215  
      31A      1.592166    32A      1.609472    33A      1.624095  
      34A      1.641452    35A      1.760306    36A      1.807664  
      37A      2.033826    38A      2.061636    39A      2.090539  
      40A      2.146887    41A      2.379674    42A      2.389666  
      43A      2.422094    44A      2.941382    45A      3.008271  
      46A      3.056099    47A      3.208968    48A      3.675828  

    Final Occupation by Irrep:
              A 
    DOCC [     9 ]

  Energy converged.

  @RKS Final Energy:  -115.72068053071470

   => Energetics <=

    Nuclear Repulsion Energy =             40.1158860016137950
    One-Electron Energy =                -236.6996460483346709
    Two-Electron Energy =                  93.4162909771176544
    DFT Exchange-Correlation Energy =     -12.5532114611114949
    Empirical Dispersion Energy =           0.0000000000000000
    VV10 Nonlocal Energy =                  0.0000000000000000
    Total Energy =                       -115.7206805307147022



Properties will be evaluated at   0.000000,   0.000000,   0.000000 [a0]

Properties computed using the SCF density matrix

  Nuclear Dipole Moment: [e a0]
     X:    -0.0000      Y:    -2.3472      Z:     0.0040

  Electronic Dipole Moment: [e a0]
     X:    -0.0000      Y:     1.8747      Z:    -0.4566

  Dipole Moment: [e a0]
     X:    -0.0000      Y:    -0.4725      Z:    -0.4526     Total:     0.6543

  Dipole Moment: [D]
     X:    -0.0000      Y:    -1.2009      Z:    -1.1505     Total:     1.6630


*** tstop() called on blogin3 at Mon Jan 28 19:37:09 2019
Module time:
	user time   =       3.79 seconds =       0.06 minutes
	system time =       0.04 seconds =       0.00 minutes
	total time  =          4 seconds =       0.07 minutes
Total time:
	user time   =      24.62 seconds =       0.41 minutes
	system time =       0.23 seconds =       0.00 minutes
	total time  =         26 seconds =       0.43 minutes

*** tstart() called on blogin3
*** at Mon Jan 28 19:37:09 2019


         ------------------------------------------------------------
                                   SCF GRAD                          
                          Rob Parrish, Justin Turney,                
                       Andy Simmonett, and Alex Sokolov              
         ------------------------------------------------------------

  ==> Geometry <==

    Molecular point group: c1
    Full point group: C1

    Geometry (in Angstrom), charge = 0, multiplicity = 1:

       Center              X                  Y                   Z               Mass       
    ------------   -----------------  -----------------  -----------------  -----------------
         H            0.000000000170     0.669248641235    -1.152791554797     1.007825032070
         O            0.000000000170     0.669248641235    -0.188194494781    15.994914619560
         C            0.000000000170    -0.681484828708     0.250405870305    12.000000000000
         H           -0.000000215398    -1.408187708067    -0.582191107369     1.007825032070
         H           -0.893492023497    -0.884099646159     0.870113205572     1.007825032070
         H            0.893492234016    -0.884099779211     0.870112859033     1.007825032070

  Nuclear repulsion =   40.115886001613795

  ==> Basis Set <==

  Basis Set: CC-PVDZ
    Blend: CC-PVDZ
    Number of shells: 24
    Number of basis function: 48
    Number of Cartesian functions: 50
    Spherical Harmonics?: true
    Max angular momentum: 2

  ==> DirectJKGrad: Integral-Direct SCF Gradients <==

    Gradient:                    1
    J tasked:                  Yes
    K tasked:                  Yes
    wK tasked:                  No
    Integrals threads:           1
    Schwarz Cutoff:          0E+00

  ==> DFT Potential <==

   => Composite Functional: B3LYP <= 

    B3LYP Hyb-GGA Exchange-Correlation Functional

    P. J. Stephens, F. J. Devlin, C. F. Chabalowski, and M. J. Frisch, J. Phys. Chem. 98, 11623 (1994)

    Deriv               =              1
    GGA                 =           TRUE
    Meta                =          FALSE

    Exchange Hybrid     =           TRUE
    MP2 Hybrid          =          FALSE

   => Exchange Functionals <=

    0.0800   Slater exchange
    0.7200         Becke 88

   => Exact (HF) Exchange <=

    0.2000               HF 

   => Correlation Functionals <=

    0.1900   Vosko, Wilk & Nusair (VWN5_RPA)
    0.8100   Lee, Yang & Parr

   => Molecular Quadrature <=

    Radial Scheme       =       TREUTLER
    Pruning Scheme      =           FLAT
    Nuclear Scheme      =       TREUTLER

    BS radius alpha     =              1
    Pruning alpha       =              1
    Radial Points       =             75
    Spherical Points    =            302
    Total Points        =         133354
    Total Blocks        =           1078
    Max Points          =            256
    Max Functions       =             48


  -Total Gradient:
     Atom            X                  Y                   Z
    ------   -----------------  -----------------  -----------------
       1       -0.000000000997     0.000096856897    -0.000002493366
       2        0.000000002194    -0.000233358500    -0.000065705313
       3       -0.000000000426     0.000370373532     0.000038234244
       4        0.000000000598    -0.000060695742     0.000012697172
       5        0.000000390235    -0.000089135812     0.000006566738
       6       -0.000000391596    -0.000089134174     0.000006565727


*** tstop() called on blogin3 at Mon Jan 28 19:37:11 2019
Module time:
	user time   =       1.95 seconds =       0.03 minutes
	system time =       0.01 seconds =       0.00 minutes
	total time  =          2 seconds =       0.03 minutes
Total time:
	user time   =      26.57 seconds =       0.44 minutes
	system time =       0.24 seconds =       0.00 minutes
	total time  =         28 seconds =       0.47 minutes

			-----------------------------------------
			 OPTKING 2.0: for geometry optimizations 
			  - R.A. King,  Bethel University        
			-----------------------------------------

	Previous internal coordinate definitions found.
	---Fragment 1 Geometry and Gradient---
	 H           0.0000000003        1.2646966467       -2.1784603269
	 O           0.0000000003        1.2646966467       -0.3556360549
	 C           0.0000000003       -1.2878196900        0.4731985169
	 H          -0.0000004070       -2.6610891119       -1.1001817499
	 H          -1.6884552263       -1.6707062054        1.6442756631
	 H           1.6884556241       -1.6707064569        1.6442750083
	            -0.0000000010        0.0000968569       -0.0000024934
	             0.0000000022       -0.0002333585       -0.0000657053
	            -0.0000000004        0.0003703735        0.0000382342
	             0.0000000006       -0.0000606957        0.0000126972
	             0.0000003902       -0.0000891358        0.0000065667
	            -0.0000003916       -0.0000891342        0.0000065657

	---Fragment 1 Intrafragment Coordinates---
	 - Coordinate -           - BOHR/RAD -       - ANG/DEG -
	 R(1,2)           =         1.822824	       0.964597
	 R(2,3)           =         2.683711	       1.420159
	 R(3,4)           =         2.088395	       1.105131
	 R(3,5)           =         2.090193	       1.106082
	 R(3,6)           =         2.090193	       1.106082
	 B(1,2,3)         =         1.884768	     107.989274
	 B(2,3,4)         =         1.974415	     113.125660
	 B(2,3,5)         =         1.925445	     110.319899
	 B(2,3,6)         =         1.925445	     110.319900
	 B(4,3,5)         =         1.877218	     107.556674
	 B(4,3,6)         =         1.877218	     107.556674
	 B(5,3,6)         =         1.880817	     107.762883
	 D(1,2,3,4)       =        -0.000000	      -0.000000
	 D(1,2,3,5)       =        -2.103562	    -120.525233
	 D(1,2,3,6)       =         2.103562	     120.525210

	Current energy   :      -115.7206805307

	Energy change for the previous step:
		Projected    :        -0.0000030448
		Actual       :        -0.0000031578

	Performing Bofill update.
	Previous computed or guess Hessian on step 1.
	Steps to be used in Hessian update: 3 2
	Taking PRFO optimization step.
	Maximizing along 1 lowest eigenvalue of Hessian.

 RFO min eigenvalues
 -0.000000  0.000000  0.000000  0.005210  0.093107  0.100960  0.152019  0.159653
  0.161893  0.205953  0.323892  0.324010  0.325126  0.476204  0.491775

 RFO max eigenvalues
 -0.000000  0.000000
	|RFO target step|  :        0.0098563414
	RFO gradient       :       -0.0000463904
	RFO hessian        :        0.0047066415
	Projected Delta(E) :       -0.0000002286

	Back-transformation to cartesian coordinates...
	Could not converge backtransformation.
	Using first guess instead.

	--- Internal Coordinate Step in ANG or DEG, aJ/ANG or AJ/DEG ---
	 ---------------------------------------------------------------------------
	   Coordinate                Previous        Force       Change         New 
	   ----------                --------       ------       ------       ------
	    1 R(1,2)          =      0.964597    -0.000005     0.000002     0.964599
	    2 R(2,3)          =      1.420159     0.000880     0.000181     1.420339
	    3 R(3,4)          =      1.105131    -0.000244    -0.000062     1.105069
	    4 R(3,5)          =      1.106082    -0.000163    -0.000027     1.106055
	    5 R(3,6)          =      1.106082    -0.000163    -0.000027     1.106055
	    6 B(1,2,3)        =    107.989274    -0.000014    -0.051159   107.938115
	    7 B(2,3,4)        =    113.125660    -0.000002    -0.014836   113.110824
	    8 B(2,3,5)        =    110.319899    -0.000008    -0.033155   110.286744
	    9 B(2,3,6)        =    110.319900    -0.000008    -0.033154   110.286746
	   10 B(4,3,5)        =    107.556674     0.000006     0.038267   107.594942
	   11 B(4,3,6)        =    107.556674     0.000006     0.038267   107.594942
	   12 B(5,3,6)        =    107.762883     0.000005     0.008843   107.771726
	   13 D(1,2,3,4)      =      0.000000    -0.000000     0.000000     0.000000
	   14 D(1,2,3,5)      =   -120.525233    -0.000000    -0.015338  -120.540571
	   15 D(1,2,3,6)      =    120.525210     0.000000     0.015317   120.540526
	 ---------------------------------------------------------------------------
	Successfully symmetrized geometry.

  ==> Convergence Check <==

  Measures of convergence in internal coordinates in au.
  Criteria marked as inactive (o), active & met (*), and active & unmet ( ).
  ---------------------------------------------------------------------------------------------
   Step     Total Energy     Delta E     MAX Force     RMS Force      MAX Disp      RMS Disp   
  ---------------------------------------------------------------------------------------------
    Convergence Criteria    1.00e-06 *    3.00e-04 *             o    1.20e-03 *             o
  ---------------------------------------------------------------------------------------------
      4    -115.72068053   -3.16e-06      1.81e-04 *    7.53e-05 o    8.93e-04 *    4.27e-04 o  ~
  ---------------------------------------------------------------------------------------------


  **** Optimization is complete! (in 4 steps) ****

  ==> Optimization Summary <==

  Measures of convergence in internal coordinates in au.
  --------------------------------------------------------------------------------------------------------------- ~
   Step         Total Energy             Delta E       MAX Force       RMS Force        MAX Disp        RMS Disp  ~
  --------------------------------------------------------------------------------------------------------------- ~
      1    -115.718459456247   -115.718459456247      0.02559492      0.01038726      0.09713585      0.04033293  ~
      2    -115.720538785301     -0.002079329054      0.00489162      0.00220671      0.01866182      0.00833713  ~
      3    -115.720677372875     -0.000138587575      0.00082550      0.00027681      0.00472236      0.00149734  ~
      4    -115.720680530715     -0.000003157839      0.00018054      0.00007527      0.00089288      0.00042652  ~
  --------------------------------------------------------------------------------------------------------------- ~

	Writing optimization data to binary file.
	Final energy is   -115.7206805307147
	Final (previous) structure:
	Cartesian Geometry (in Angstrom)
	    H     0.0000000002   0.6692486412  -1.1527915548
	    O     0.0000000002   0.6692486412  -0.1881944948
	    C     0.0000000002  -0.6814848287   0.2504058703
	    H    -0.0000002154  -1.4081877081  -0.5821911074
	    H    -0.8934920235  -0.8840996462   0.8701132056
	    H     0.8934922340  -0.8840997792   0.8701128590
	Saving final (previous) structure.
	Removing binary optimization data file.
			--------------------------
[...]
  symmetry-adapted, cartesian coordinates (fd_freq_1).

  25 gradients passed in, including the reference geometry.
  Generating complete list of displacements from unique ones.


-------------------------------------------------------------


  ==> Harmonic Vibrational Analysis <==

  non-mass-weighted Hessian:       Symmetric? True   Hermitian? True   Lin Dep Dim?  6 (0)
  projection of translations (True) and rotations (True) removed 6 degrees of freedom (6)
  total projector:                 Symmetric? True   Hermitian? True   Lin Dep Dim?  6 (6)
  mass-weighted Hessian:           Symmetric? True   Hermitian? True   Lin Dep Dim?  6 (0)
  pre-proj  low-frequency mode:    0.0000i [cm^-1]
  pre-proj  low-frequency mode:    0.0000i [cm^-1]
  pre-proj  low-frequency mode:    0.0000i [cm^-1]
  pre-proj  low-frequency mode:    0.0000  [cm^-1]
  pre-proj  low-frequency mode:    0.0000  [cm^-1]
  pre-proj  low-frequency mode:    0.0000  [cm^-1]
  pre-proj  low-frequency mode:    0.0000  [cm^-1]
  pre-proj  all modes:['338.6074i' '0.0000i' '0.0000i' '0.0000' '0.0000' '0.0000' '0.0000'
 '1055.8612' '1077.8483' '1175.0480' '1358.5994' '1456.7225' '1467.8511'
 '1490.6962' '2988.2477' '3043.6455' '3059.4369' '3825.0067']
  projected mass-weighted Hessian: Symmetric? True   Hermitian? True   Lin Dep Dim?  6 (6)
  post-proj low-frequency mode:  338.6074i [cm^-1] (V)
  post-proj low-frequency mode:    0.0001i [cm^-1] (TR)
  post-proj low-frequency mode:    0.0000i [cm^-1] (TR)
  post-proj low-frequency mode:    0.0000  [cm^-1] (TR)
  post-proj low-frequency mode:    0.0000  [cm^-1] (TR)
  post-proj low-frequency mode:    0.0000  [cm^-1] (TR)
  post-proj low-frequency mode:    0.0000  [cm^-1] (TR)
  post-proj  all modes:['338.6074i' '0.0001i' '0.0000i' '0.0000' '0.0000' '0.0000' '0.0000'
 '1055.8612' '1077.8483' '1175.0480' '1358.5994' '1456.7225' '1467.8511'
 '1490.6962' '2988.2477' '3043.6455' '3059.4369' '3825.0067']

  Vibration                       1                   8                   9           
  Freq [cm^-1]                338.6074i           1055.8612           1077.8483       
  Irrep                           A                   A                   A           
  Reduced mass [u]              1.0899              1.7240              2.1639        
  Force const [mDyne/A]        -0.0736              1.1324              1.4811        
  Turning point v=0 [a0]        0.0000              0.2572              0.2272        
  RMS dev v=0 [a0 u^1/2]        0.0000              0.2388              0.2363        
  Char temp [K]                 0.0000            1519.1469           1550.7814       
  ----------------------------------------------------------------------------------
      1   H                0.88  0.00  0.00    0.00 -0.61 -0.07   -0.00 -0.49  0.05   
      2   O               -0.07 -0.00  0.00    0.00  0.16 -0.06    0.00 -0.17  0.03   
      3   C                0.02  0.00 -0.00   -0.00 -0.12  0.12   -0.00  0.25  0.01   
      4   H               -0.27  0.00 -0.00    0.00  0.34 -0.28   -0.00  0.65 -0.35   
      5   H                0.14  0.12  0.19   -0.06 -0.42 -0.08   -0.04 -0.19 -0.16   
      6   H                0.14 -0.12 -0.19    0.06 -0.42 -0.08    0.04 -0.19 -0.16   

  Vibration                       10                  11                  12          
  Freq [cm^-1]                1175.0480           1358.5994           1456.7225       
  Irrep                           A                   A                   A           
  Reduced mass [u]              1.2538              1.2708              1.0425        
  Force const [mDyne/A]         1.0200              1.3820              1.3033        
  Turning point v=0 [a0]        0.2859              0.2641              0.2816        
  RMS dev v=0 [a0 u^1/2]        0.2263              0.2105              0.2033        
  Char temp [K]               1690.6298           1954.7191           2095.8961       
  ----------------------------------------------------------------------------------
      1   H               -0.14 -0.00  0.00    0.00  0.85 -0.06   -0.02 -0.00  0.00   
      2   O               -0.05  0.00 -0.00    0.00 -0.04 -0.07   -0.01 -0.00  0.00   
      3   C                0.14 -0.00  0.00   -0.00 -0.00  0.12   -0.06 -0.00  0.00   
      4   H               -0.30  0.00 -0.00    0.00  0.28 -0.11    0.71 -0.00  0.00   
      5   H               -0.20  0.55 -0.31   -0.09 -0.26 -0.08    0.05  0.43  0.25   
      6   H               -0.20 -0.55  0.31    0.09 -0.26 -0.08    0.05 -0.43 -0.25   

  Vibration                       13                  14                  15          
  Freq [cm^-1]                1467.8511           1490.6962           2988.2477       
  Irrep                           A                   A                   A           
  Reduced mass [u]              1.1352              1.0452              1.0310        
  Force const [mDyne/A]         1.4411              1.3685              5.4242        
  Turning point v=0 [a0]        0.2688              0.2780              0.1977        
  RMS dev v=0 [a0 u^1/2]        0.2025              0.2010              0.1419        
  Char temp [K]               2111.9077           2144.7767           4299.4165       
  ----------------------------------------------------------------------------------
      1   H               -0.00  0.03  0.00    0.00  0.07 -0.01   -0.00  0.00  0.00   
      2   O                0.00 -0.02 -0.00   -0.00  0.00 -0.02    0.00 -0.00  0.00   
      3   C               -0.00 -0.10  0.02   -0.00  0.01 -0.05    0.00 -0.04  0.02   
      4   H                0.00  0.51 -0.47    0.00  0.14 -0.13    0.00  0.35  0.42   
      5   H               -0.04  0.48  0.13    0.41 -0.20  0.52    0.48  0.09 -0.33   
      6   H                0.04  0.48  0.13   -0.41 -0.20  0.52   -0.48  0.09 -0.33   

  Vibration                       16                  17                  18          
  Freq [cm^-1]                3043.6455           3059.4369           3825.0067       
  Irrep                           A                   A                   A           
  Reduced mass [u]              1.1055              1.1054              1.0675        
  Force const [mDyne/A]         6.0338              6.0960              9.2020        
  Turning point v=0 [a0]        0.1892              0.1887              0.1717        
  RMS dev v=0 [a0 u^1/2]        0.1406              0.1403              0.1255        
  Char temp [K]               4379.1215           4401.8418           5503.3246       
  ----------------------------------------------------------------------------------
      1   H               -0.01  0.00  0.00   -0.00 -0.01 -0.02   -0.00 -0.01  1.00   
      2   O                0.00 -0.00 -0.00    0.00  0.00  0.00    0.00  0.00 -0.06   
      3   C               -0.09  0.00  0.00   -0.00 -0.03 -0.09   -0.00 -0.00 -0.00   
      4   H               -0.02 -0.00 -0.00    0.00  0.53  0.64    0.00  0.00  0.02   
      5   H                0.57  0.11 -0.40   -0.33 -0.07  0.20   -0.01 -0.00  0.00   
      6   H                0.57 -0.11  0.40    0.33 -0.07  0.20    0.01 -0.00  0.00   

  ==> Thermochemistry Components <==

  Entropy, S
    Electronic S            0.000 [cal/(mol K)]        0.000 [J/(mol K)]       0.00000000 [mEh/K] (multiplicity = 1)
    Translational S        36.324 [cal/(mol K)]      151.980 [J/(mol K)]       0.05788607 [mEh/K] (mol. weight = 32.0262 [u], P = 101325.00 [Pa])
    Rotational S           19.011 [cal/(mol K)]       79.543 [J/(mol K)]       0.03029624 [mEh/K] (symmetry no. = 1)
    Vibrational S           0.250 [cal/(mol K)]        1.046 [J/(mol K)]       0.00039835 [mEh/K]
  Total S                  55.585 [cal/(mol K)]      232.568 [J/(mol K)]       0.08858065 [mEh/K]
  Correction S              0.000 [cal/(mol K)]        0.000 [J/(mol K)]       0.00000000 [mEh/K]

  Constant volume heat capacity, Cv
    Electronic Cv           0.000 [cal/(mol K)]        0.000 [J/(mol K)]       0.00000000 [mEh/K]
    Translational Cv        2.981 [cal/(mol K)]       12.472 [J/(mol K)]       0.00475022 [mEh/K]
    Rotational Cv           2.981 [cal/(mol K)]       12.472 [J/(mol K)]       0.00475022 [mEh/K]
    Vibrational Cv          1.212 [cal/(mol K)]        5.070 [J/(mol K)]       0.00193103 [mEh/K]
  Total Cv                  7.173 [cal/(mol K)]       30.013 [J/(mol K)]       0.01143148 [mEh/K]
  Correction Cv             0.000 [cal/(mol K)]        0.000 [J/(mol K)]       0.00000000 [mEh/K]

  Constant pressure heat capacity, Cp
    Electronic Cp           0.000 [cal/(mol K)]        0.000 [J/(mol K)]       0.00000000 [mEh/K]
    Translational Cp        4.968 [cal/(mol K)]       20.786 [J/(mol K)]       0.00791704 [mEh/K]
    Rotational Cp           2.981 [cal/(mol K)]       12.472 [J/(mol K)]       0.00475022 [mEh/K]
    Vibrational Cp          1.212 [cal/(mol K)]        5.070 [J/(mol K)]       0.00193103 [mEh/K]
  Total Cp                  9.161 [cal/(mol K)]       38.328 [J/(mol K)]       0.01459829 [mEh/K]
  Correction Cp             0.000 [cal/(mol K)]        0.000 [J/(mol K)]       0.00000000 [mEh/K]

  ==> Thermochemistry Energy Analysis <==

  Raw electronic energy, E0
  Total E0, Electronic energy at well bottom at 0 [K]                 -115.72068053 [Eh]

  Zero-point energy, ZPE_vib = Sum_i nu_i / 2
    Electronic ZPE          0.000 [kcal/mol]        0.000 [kJ/mol]       0.00000000 [Eh]
    Translational ZPE       0.000 [kcal/mol]        0.000 [kJ/mol]       0.00000000 [Eh]
    Rotational ZPE          0.000 [kcal/mol]        0.000 [kJ/mol]       0.00000000 [Eh]
    Vibrational ZPE        31.449 [kcal/mol]      131.583 [kJ/mol]       0.05011732 [Eh]       10999.478 [cm^-1]
  Correction ZPE           31.449 [kcal/mol]      131.583 [kJ/mol]       0.05011732 [Eh]       10999.478 [cm^-1]
  Total ZPE, Electronic energy at 0 [K]                               -115.67056321 [Eh]

  Thermal Energy, E (includes ZPE)
    Electronic E            0.000 [kcal/mol]        0.000 [kJ/mol]       0.00000000 [Eh]
    Translational E         0.889 [kcal/mol]        3.718 [kJ/mol]       0.00141628 [Eh]
    Rotational E            0.889 [kcal/mol]        3.718 [kJ/mol]       0.00141628 [Eh]
    Vibrational E          31.512 [kcal/mol]      131.848 [kJ/mol]       0.05021812 [Eh]
  Correction E             33.290 [kcal/mol]      139.285 [kJ/mol]       0.05305068 [Eh]
  Total E, Electronic energy at  298.15 [K]                           -115.66762985 [Eh]

  Enthalpy, H_trans = E_trans + k_B * T
    Electronic H            0.000 [kcal/mol]        0.000 [kJ/mol]       0.00000000 [Eh]
    Translational H         1.481 [kcal/mol]        6.197 [kJ/mol]       0.00236046 [Eh]
    Rotational H            0.889 [kcal/mol]        3.718 [kJ/mol]       0.00141628 [Eh]
    Vibrational H          31.512 [kcal/mol]      131.848 [kJ/mol]       0.05021812 [Eh]
  Correction H             33.882 [kcal/mol]      141.764 [kJ/mol]       0.05399487 [Eh]
  Total H, Enthalpy at  298.15 [K]                                    -115.66668566 [Eh]

  Gibbs free energy, G = H - T * S
    Electronic G            0.000 [kcal/mol]        0.000 [kJ/mol]       0.00000000 [Eh]
    Translational G        -9.349 [kcal/mol]      -39.115 [kJ/mol]      -0.01489827 [Eh]
    Rotational G           -4.779 [kcal/mol]      -19.997 [kJ/mol]      -0.00761654 [Eh]
    Vibrational G          31.438 [kcal/mol]      131.536 [kJ/mol]       0.05009936 [Eh]
  Correction G             17.310 [kcal/mol]       72.423 [kJ/mol]       0.02758455 [Eh]
  Total G, Free enthalpy at  298.15 [K]                               -115.69309599 [Eh]
  ## Total Gradient (Symmetry 0) ##
  Irrep: 1 Size: 6 x 3

                 1                   2                   3

    1    -0.00000000130442     0.00009685668646    -0.00000249761916
    2     0.00000000281567    -0.00023335472842    -0.00006570220864
    3    -0.00000000330749     0.00037036869527     0.00003823663225
    4     0.00000000031220    -0.00006069525698     0.00001269703475
    5     0.00000039241704    -0.00008913531368     0.00000656517367
    6    -0.00000039092591    -0.00008913388243     0.00000656618898



  ## Hessian (Symmetry 0) ##
  Irrep: 1 Size: 18 x 18

                 1                   2                   3                   4                   5

    1    -0.00227715217483     0.00000001239734    -0.00000009882296     0.00897663543959     0.00000011705051
    2     0.00000001239734     0.05494561366708    -0.00593761803126     0.00000016590891    -0.03834757756928
    3    -0.00000009882296    -0.00593761803126     0.52499499775758     0.00000214669024     0.01787429743360
    4     0.00897663543959     0.00000016590891     0.00000214669024     0.02397003907443    -0.00000058199942
    5     0.00000011705051    -0.03834757756928     0.01787429743360    -0.00000058199942     0.33768674993102
    6     0.00000004664523    -0.04366800672477    -0.51931282164988    -0.00000200730686    -0.07187524134836
    7    -0.00642425095030    -0.00000033846435    -0.00000323639967    -0.05545450602306     0.00000099101424
    8     0.00000010984174    -0.01100183888723    -0.01041759139152     0.00000003729802    -0.22720247967599
    9     0.00000001665446     0.04671641565455    -0.01141164690983    -0.00000015493298     0.01755535140856
   10     0.00192215436621     0.00000007019481     0.00000057194324     0.00045552850466    -0.00000025503950
   11    -0.00000009481294     0.00251151780499    -0.00299035796693     0.00000006077481    -0.03511681490051
   12     0.00000000667355    -0.00036940577025     0.00500055892412     0.00000004695292     0.01465085513246
   13    -0.00109870046948     0.00048119446530    -0.00177252307615     0.01102616110166    -0.00561764269302
   14    -0.00453150802365    -0.00405395435707     0.00073439014735    -0.02221772966602    -0.01850971941573
   15     0.00207276782329     0.00162935954110     0.00036495762950     0.00549670937103     0.01089729351500
   16    -0.00109868621119    -0.00048110450192     0.00177313966998     0.01102614190271     0.00561737168522
   17     0.00453136354654    -0.00405376065849     0.00073687980875     0.02221804768553    -0.01851015836950
   18    -0.00207273897322     0.00162925533064     0.00036395424850    -0.00549674077118     0.01089744385874

                 6                   7                   8                   9                  10

    1     0.00000004664523    -0.00642425095030     0.00000010984174     0.00000001665446     0.00192215436621
    2    -0.04366800672477    -0.00000033846435    -0.01100183888723     0.04671641565455     0.00000007019481
    3    -0.51931282164988    -0.00000323639967    -0.01041759139152    -0.01141164690983     0.00000057194324
    4    -0.00000200730686    -0.05545450602306     0.00000003729802    -0.00000015493298     0.00045552850466
    5    -0.07187524134836     0.00000099101424    -0.22720247967599     0.01755535140856    -0.00000025503950
    6     0.62806242182088     0.00000307010787     0.07720210278228    -0.10797779910918    -0.00000052852833
    7     0.00000307010787     0.55229151512361    -0.00000036930119     0.00000028834804    -0.04850694178725
    8     0.07720210278228    -0.00000036930119     0.48187599147652     0.02582699745261     0.00000003917696
    9    -0.10797779910918     0.00000028834804     0.02582699745261     0.57735819645252    -0.00000015288102
   10    -0.00000052852833    -0.04850694178725     0.00000003917696    -0.00000015288102     0.04333465534554
   11    -0.01656127953936    -0.00000002861876    -0.14538727343092    -0.11680535844412     0.00000007662690
   12     0.01228126645135    -0.00000015893519    -0.12642486827878    -0.20802223038061     0.00000007878844
   13    -0.00047831289170    -0.22095286117584    -0.02686743254448     0.11496675702789     0.00139732055600
   14     0.02745241887323    -0.02305859673473    -0.04914226052179     0.01335334673113     0.01614233187887
   15    -0.00652703672325     0.11199239127391     0.01690675237037    -0.12497336908114     0.02084262997906
   16     0.00047773196392    -0.22095295518718     0.02686761551527    -0.11496675421346     0.00139728301483
   17     0.02745000595697     0.02305834210348    -0.04914213896058     0.01335324719728    -0.01614226283764
   18    -0.00652603078992    -0.11199235440020     0.01690660706504    -0.12497315097177    -0.02084259930107

                11                  12                  13                  14                  15

    1    -0.00000009481294     0.00000000667355    -0.00109870046948    -0.00453150802365     0.00207276782329
    2     0.00251151780499    -0.00036940577025     0.00048119446530    -0.00405395435707     0.00162935954110
    3    -0.00299035796693     0.00500055892412    -0.00177252307615     0.00073439014735     0.00036495762950
    4     0.00000006077481     0.00000004695292     0.01102616110166    -0.02221772966602     0.00549670937103
    5    -0.03511681490051     0.01465085513246    -0.00561764269302    -0.01850971941573     0.01089729351500
    6    -0.01656127953936     0.01228126645135    -0.00047831289170     0.02745241887323    -0.00652703672325
    7    -0.00000002861876    -0.00000015893519    -0.22095286117584    -0.02305859673473     0.11199239127391
    8    -0.14538727343092    -0.12642486827878    -0.02686743254448    -0.04914226052179     0.01690675237037
    9    -0.11680535844412    -0.20802223038061     0.11496675702789     0.01335334673113    -0.12497336908114
   10     0.00000007662690     0.00000007878844     0.00139732055600     0.01614233187887     0.02084262997906
   11     0.16908783965677     0.13232243205392     0.00066694519210     0.00445240081717     0.00201724710741
   12     0.13232243205392     0.21614719871241    -0.00163233570427    -0.01008952908336    -0.01270337982897
   13     0.00066694519210    -0.00163233570427     0.23163886273706     0.03250120639825    -0.12574402740980
   14     0.00445240081717    -0.01008952908336     0.03250120639825     0.06422743117318    -0.02889051470702
   15     0.00201724710741    -0.01270337982897    -0.12574402740980    -0.02889051470702     0.13329800860478
   16    -0.00066695916406     0.00163236222542    -0.02201078274972     0.00116429614604    -0.01466047103679
   17     0.00445233005250    -0.01008948405397    -0.00116427081837     0.00302610230331    -0.00256013782643
   18     0.00201731678909    -0.01270341387830     0.01466044205473    -0.00256011196372     0.01054081939981

                16                  17                  18

    1    -0.00109868621119     0.00453136354654    -0.00207273897322
    2    -0.00048110450192    -0.00405376065849     0.00162925533064
    3     0.00177313966998     0.00073687980875     0.00036395424850
    4     0.01102614190271     0.02221804768553    -0.00549674077118
    5     0.00561737168522    -0.01851015836950     0.01089744385874
    6     0.00047773196392     0.02745000595697    -0.00652603078992
    7    -0.22095295518718     0.02305834210348    -0.11199235440020
    8     0.02686761551527    -0.04914213896058     0.01690660706504
    9    -0.11496675421346     0.01335324719728    -0.12497315097177
   10     0.00139728301483    -0.01614226283764    -0.02084259930107
   11    -0.00066695916406     0.00445233005250     0.00201731678909
   12     0.00163236222542    -0.01008948405397    -0.01270341387830
   13    -0.02201078274972    -0.00116427081837     0.01466044205473
   14     0.00116429614604     0.00302610230331    -0.00256011196372
   15    -0.01466047103679    -0.00256013782643     0.01054081939981
   16     0.23163899923087    -0.03250121968077     0.12574399139163
   17    -0.03250121968077     0.06422762563368    -0.02889051108021
   18     0.12574399139163    -0.02889051108021     0.13329782199095




    Psi4 stopped on: Monday, 28 January 2019 07:40PM
    Psi4 wall time for execution: 0:03:45.36

*** Psi4 exiting successfully. Buy a developer a beer!
