 Entering Gaussian System, Link 0=g09
 Initial command:
 /soft/gaussian/09-e.01/g09/l1.exe "/scratch/kmoore/Gau-109433.inp" -scrdir="/scratch/kmoore"
 Entering Link 1 = /soft/gaussian/09-e.01/g09/l1.exe PID=    109434.
  
 Copyright (c) 1988,1990,1992,1993,1995,1998,2003,2009,2015,
            Gaussian, Inc.  All Rights Reserved.
  
 This is part of the Gaussian(R) 09 program.  It is based on
 the Gaussian(R) 03 system (copyright 2003, Gaussian, Inc.),
 the Gaussian(R) 98 system (copyright 1998, Gaussian, Inc.),
 the Gaussian(R) 94 system (copyright 1995, Gaussian, Inc.),
 the Gaussian 92(TM) system (copyright 1992, Gaussian, Inc.),
 the Gaussian 90(TM) system (copyright 1990, Gaussian, Inc.),
 the Gaussian 88(TM) system (copyright 1988, Gaussian, Inc.),
 the Gaussian 86(TM) system (copyright 1986, Carnegie Mellon
 University), and the Gaussian 82(TM) system (copyright 1983,
 Carnegie Mellon University). Gaussian is a federally registered
 trademark of Gaussian, Inc.
  
 This software contains proprietary and confidential information,
 including trade secrets, belonging to Gaussian, Inc.
  
 This software is provided under written license and may be
 used, copied, transmitted, or stored only in accord with that
 written license.
  
 The following legend is applicable only to US Government
 contracts under FAR:
  
                    RESTRICTED RIGHTS LEGEND
  
 Use, reproduction and disclosure by the US Government is
 subject to restrictions as set forth in subparagraphs (a)
 and (c) of the Commercial Computer Software - Restricted
 Rights clause in FAR 52.227-19.
  
 Gaussian, Inc.
 340 Quinnipiac St., Bldg. 40, Wallingford CT 06492
  
  
 ---------------------------------------------------------------
 Warning -- This program may not be used in any manner that
 competes with the business of Gaussian, Inc. or will provide
 assistance to any competitor of Gaussian, Inc.  The licensee
 of this program is prohibited from giving any competitor of
 Gaussian, Inc. access to this program.  By using this program,
 the user acknowledges that Gaussian, Inc. is engaged in the
 business of creating and licensing software in the field of
 computational chemistry and represents and warrants to the
 licensee that it is not a competitor of Gaussian, Inc. and that
 it will not use this program in any manner prohibited above.
 ---------------------------------------------------------------
  

 Cite this work as:
 Gaussian 09, Revision E.01,
 M. J. Frisch, G. W. Trucks, H. B. Schlegel, G. E. Scuseria, 
 M. A. Robb, J. R. Cheeseman, G. Scalmani, V. Barone, B. Mennucci, 
 G. A. Petersson, H. Nakatsuji, M. Caricato, X. Li, H. P. Hratchian, 
 A. F. Izmaylov, J. Bloino, G. Zheng, J. L. Sonnenberg, M. Hada, 
 M. Ehara, K. Toyota, R. Fukuda, J. Hasegawa, M. Ishida, T. Nakajima, 
 Y. Honda, O. Kitao, H. Nakai, T. Vreven, J. A. Montgomery, Jr., 
 J. E. Peralta, F. Ogliaro, M. Bearpark, J. J. Heyd, E. Brothers, 
 K. N. Kudin, V. N. Staroverov, T. Keith, R. Kobayashi, J. Normand, 
 K. Raghavachari, A. Rendell, J. C. Burant, S. S. Iyengar, J. Tomasi, 
 M. Cossi, N. Rega, J. M. Millam, M. Klene, J. E. Knox, J. B. Cross, 
 V. Bakken, C. Adamo, J. Jaramillo, R. Gomperts, R. E. Stratmann, 
 O. Yazyev, A. J. Austin, R. Cammi, C. Pomelli, J. W. Ochterski, 
 R. L. Martin, K. Morokuma, V. G. Zakrzewski, G. A. Voth, 
 P. Salvador, J. J. Dannenberg, S. Dapprich, A. D. Daniels, 
 O. Farkas, J. B. Foresman, J. V. Ortiz, J. Cioslowski, 
 and D. J. Fox, Gaussian, Inc., Wallingford CT, 2013.
 
 ******************************************
 Gaussian 09:  ES64L-G09RevE.01 30-Nov-2015
                27-Jan-2019 
 ******************************************
 %mem=30gb
 %nproc=1
 Will use up to    1 processors via shared memory.
 ---------------------
 # RHF CCSD(T)/cc-pVDZ
 ---------------------
 1/38=1/1;
 2/12=2,17=6,18=5,40=1/2;
 3/5=16,11=1,16=1,25=1,30=1,116=1/1,2,3;
 4//1;
 5/5=2,38=5/2;
 8/6=4,9=120000,10=1/1,4;
 9/5=7,14=2/13;
 6/7=2,8=2,9=2,10=2/1;
 99/5=1,9=1/99;
 ------------
 Single Point
 ------------
 Symbolic Z-matrix:
 Charge =  0 Multiplicity = 1
 O                     0.        0.        0. 
 C                     0.        0.        1.2014 
 H                     0.93757   0.        1.7892 
 H                    -0.93757   0.        1.7892 
 
                          Input orientation:                          
 ---------------------------------------------------------------------
 Center     Atomic      Atomic             Coordinates (Angstroms)
 Number     Number       Type             X           Y           Z
 ---------------------------------------------------------------------
      1          8           0        0.000000    0.000000    0.000000
      2          6           0        0.000000    0.000000    1.201402
      3          1           0        0.937573    0.000000    1.789196
      4          1           0       -0.937573    0.000000    1.789196
 ---------------------------------------------------------------------
                    Distance matrix (angstroms):
                    1          2          3          4
     1  O    0.000000
     2  C    1.201402   0.000000
     3  H    2.019967   1.106592   0.000000
     4  H    2.019967   1.106592   1.875146   0.000000
 Stoichiometry    CH2O
 Framework group  C2V[C2(CO),SGV(H2)]
 Deg. of freedom     3
 Full point group                 C2V     NOp   4
 Largest Abelian subgroup         C2V     NOp   4
 Largest concise Abelian subgroup C2      NOp   2
                         Standard orientation:                         
 ---------------------------------------------------------------------
 Center     Atomic      Atomic             Coordinates (Angstroms)
 Number     Number       Type             X           Y           Z
 ---------------------------------------------------------------------
      1          8           0        0.000000    0.000000    0.674175
      2          6           0        0.000000   -0.000000   -0.527227
      3          1           0        0.000000    0.937573   -1.115021
      4          1           0       -0.000000   -0.937573   -1.115021
 ---------------------------------------------------------------------
 Rotational constants (GHZ):    285.2278136     39.0287856     34.3311292
 Standard basis: CC-pVDZ (5D, 7F)
 There are    20 symmetry adapted cartesian basis functions of A1  symmetry.
 There are     3 symmetry adapted cartesian basis functions of A2  symmetry.
 There are     7 symmetry adapted cartesian basis functions of B1  symmetry.
 There are    10 symmetry adapted cartesian basis functions of B2  symmetry.
 There are    18 symmetry adapted basis functions of A1  symmetry.
 There are     3 symmetry adapted basis functions of A2  symmetry.
 There are     7 symmetry adapted basis functions of B1  symmetry.
 There are    10 symmetry adapted basis functions of B2  symmetry.
    38 basis functions,    80 primitive gaussians,    40 cartesian basis functions
     8 alpha electrons        8 beta electrons
       nuclear repulsion energy        31.3546200927 Hartrees.
 NAtoms=    4 NActive=    4 NUniq=    3 SFac= 1.78D+00 NAtFMM=   60 NAOKFM=F Big=F
 Integral buffers will be    131072 words long.
 Raffenetti 1 integral format.
 Two-electron integral symmetry is turned on.
 One-electron integrals computed using PRISM.
 NBasis=    38 RedAO= T EigKep=  3.55D-02  NBF=    18     3     7    10
 NBsUse=    38 1.00D-06 EigRej= -1.00D+00 NBFU=    18     3     7    10
 ExpMin= 1.22D-01 ExpMax= 1.17D+04 ExpMxC= 4.01D+02 IAcc=1 IRadAn=         1 AccDes= 0.00D+00
 Harris functional with IExCor=  205 and IRadAn=       1 diagonalized for initial guess.
 HarFok:  IExCor=  205 AccDes= 0.00D+00 IRadAn=         1 IDoV= 1 UseB2=F ITyADJ=14
 ICtDFT=  3500011 ScaDFX=  1.000000  1.000000  1.000000  1.000000
 FoFCou: FMM=F IPFlag=           0 FMFlag=      100000 FMFlg1=           0
         NFxFlg=           0 DoJE=T BraDBF=F KetDBF=T FulRan=T
         wScrn=  0.000000 ICntrl=     500 IOpCl=  0 I1Cent=   200000004 NGrid=           0
         NMat0=    1 NMatS0=      1 NMatT0=    0 NMatD0=    1 NMtDS0=    0 NMtDT0=    0
 Petite list used in FoFCou.
 Initial guess orbital symmetries:
       Occupied  (A1) (A1) (A1) (A1) (B2) (A1) (B1) (B2)
       Virtual   (B1) (A1) (B2) (A1) (B1) (A1) (B2) (A1) (B2) (A1)
                 (A1) (A2) (B1) (B2) (B1) (A1) (B2) (A1) (B2) (A1)
                 (B1) (A2) (A1) (B2) (A1) (A2) (A1) (B1) (B2) (A1)
 The electronic state of the initial guess is 1-A1.
 Keep R1 ints in memory in symmetry-blocked form, NReq=1144307.
 Requested convergence on RMS density matrix=1.00D-08 within 128 cycles.
 Requested convergence on MAX density matrix=1.00D-06.
 Requested convergence on             energy=1.00D-06.
 No special actions if energy rises.
 SCF Done:  E(RHF) =  -113.876482912     A.U. after   11 cycles
            NFock= 11  Conv=0.35D-08     -V/T= 2.0013
 ExpMin= 1.22D-01 ExpMax= 1.17D+04 ExpMxC= 4.01D+02 IAcc=3 IRadAn=         5 AccDes= 0.00D+00
 HarFok:  IExCor=  205 AccDes= 0.00D+00 IRadAn=         5 IDoV=-2 UseB2=F ITyADJ=14
 ICtDFT= 12500011 ScaDFX=  1.000000  1.000000  1.000000  1.000000
 Range of M.O.s used for correlation:     3    38
 NBasis=    38 NAE=     8 NBE=     8 NFC=     2 NFV=     0
 NROrb=     36 NOA=     6 NOB=     6 NVA=    30 NVB=    30
 Semi-Direct transformation.
 ModeAB=           4 MOrb=             6 LenV=    4026337702
 LASXX=        31546 LTotXX=       31546 LenRXX=       66441
 LTotAB=       34895 MaxLAS=      149688 LenRXY=           0
 NonZer=       97987 LenScr=      785920 LnRSAI=      149688
 LnScr1=      785920 LExtra=           0 Total=      1787969
 MaxDsk=          -1 SrtSym=           T ITran=            4
 JobTyp=0 Pass  1:  I=   1 to   6.
 (rs|ai) integrals will be sorted in core.
 Spin components of T(2) and E(2):
     alpha-alpha T2 =       0.1182025997D-01 E2=     -0.3930423542D-01
     alpha-beta  T2 =       0.7395916606D-01 E2=     -0.2376435788D+00
     beta-beta   T2 =       0.1182025997D-01 E2=     -0.3930423542D-01
 ANorm=    0.1047663918D+01
 E2 =    -0.3162520497D+00 EUMP2 =    -0.11419273496158D+03
 Keep R2 and R3 ints in memory in symmetry-blocked form, NReq=1098889.
 Iterations=  50 Convergence= 0.100D-06
 Iteration Nr.   1
 **********************
 DD1Dir will call FoFMem   1 times, MxPair=        42
 NAB=    21 NAA=     0 NBB=     0.
 MP4(R+Q)=  0.50583603D-02
 E3=       -0.84329353D-02        EUMP3=      -0.11420116790D+03
 E4(DQ)=   -0.36071672D-02        UMP4(DQ)=   -0.11420477506D+03
 E4(SDQ)=  -0.79042978D-02        UMP4(SDQ)=  -0.11420907219D+03
 DE(Corr)= -0.31933774     E(Corr)=     -114.19582065    
 NORM(A)=   0.10510261D+01
 Iteration Nr.   2
 **********************
 DD1Dir will call FoFMem   1 times, MxPair=        42
 NAB=    21 NAA=     0 NBB=     0.
 DE(Corr)= -0.32994879     E(CORR)=     -114.20643171     Delta=-1.06D-02
 NORM(A)=   0.10567156D+01
 Iteration Nr.   3
 **********************
 DD1Dir will call FoFMem   1 times, MxPair=        42
 NAB=    21 NAA=     0 NBB=     0.
 DE(Corr)= -0.33085532     E(CORR)=     -114.20733823     Delta=-9.07D-04
 NORM(A)=   0.10585095D+01
 Iteration Nr.   4
 **********************
 DD1Dir will call FoFMem   1 times, MxPair=        42
 NAB=    21 NAA=     0 NBB=     0.
 DE(Corr)= -0.33197926     E(CORR)=     -114.20846217     Delta=-1.12D-03
 NORM(A)=   0.10590215D+01
 Iteration Nr.   5
 **********************
 DD1Dir will call FoFMem   1 times, MxPair=        42
 NAB=    21 NAA=     0 NBB=     0.
 DE(Corr)= -0.33210229     E(CORR)=     -114.20858520     Delta=-1.23D-04
 NORM(A)=   0.10591632D+01
 Iteration Nr.   6
 **********************
 DD1Dir will call FoFMem   1 times, MxPair=        42
 NAB=    21 NAA=     0 NBB=     0.
 DE(Corr)= -0.33211616     E(CORR)=     -114.20859907     Delta=-1.39D-05
 NORM(A)=   0.10591712D+01
 Iteration Nr.   7
 **********************
 DD1Dir will call FoFMem   1 times, MxPair=        42
 NAB=    21 NAA=     0 NBB=     0.
 DE(Corr)= -0.33211610     E(CORR)=     -114.20859901     Delta= 5.61D-08
 NORM(A)=   0.10591732D+01
 Iteration Nr.   8
 **********************
 DD1Dir will call FoFMem   1 times, MxPair=        42
 NAB=    21 NAA=     0 NBB=     0.
 DE(Corr)= -0.33211462     E(CORR)=     -114.20859753     Delta= 1.48D-06
 NORM(A)=   0.10591748D+01
 Iteration Nr.   9
 **********************
 DD1Dir will call FoFMem   1 times, MxPair=        42
 NAB=    21 NAA=     0 NBB=     0.
 DE(Corr)= -0.33211514     E(CORR)=     -114.20859805     Delta=-5.20D-07
 NORM(A)=   0.10591752D+01
 Iteration Nr.  10
 **********************
 DD1Dir will call FoFMem   1 times, MxPair=        42
 NAB=    21 NAA=     0 NBB=     0.
 DE(Corr)= -0.33211512     E(CORR)=     -114.20859803     Delta= 1.49D-08
 NORM(A)=   0.10591754D+01
 Iteration Nr.  11
 **********************
 DD1Dir will call FoFMem   1 times, MxPair=        42
 NAB=    21 NAA=     0 NBB=     0.
 DE(Corr)= -0.33211536     E(CORR)=     -114.20859827     Delta=-2.39D-07
 NORM(A)=   0.10591756D+01
 Iteration Nr.  12
 **********************
 DD1Dir will call FoFMem   1 times, MxPair=        42
 NAB=    21 NAA=     0 NBB=     0.
 DE(Corr)= -0.33211537     E(CORR)=     -114.20859828     Delta=-1.01D-08
 NORM(A)=   0.10591756D+01
 Dominant configurations:
 ***********************
 Spin Case        I    J    A    B          Value
   ABAB           7    7    9    9      -0.124920D+00
 Largest amplitude= 1.25D-01
 Time for triples=        0.18 seconds.
 T4(CCSD)= -0.10810527D-01
 T5(CCSD)=  0.96227408D-03
 CCSD(T)= -0.11421844654D+03
 Discarding MO integrals.

 **********************************************************************

            Population analysis using the SCF density.

 **********************************************************************

 Orbital symmetries:
       Occupied  (A1) (A1) (A1) (A1) (B2) (A1) (B1) (B2)
       Virtual   (B1) (A1) (B2) (A1) (A1) (B1) (B2) (B2) (A1) (A1)
                 (A1) (A2) (B1) (B2) (B1) (A1) (B2) (A1) (B1) (B2)
                 (A1) (A2) (A1) (B2) (A1) (A2) (A1) (B1) (B2) (A1)
 The electronic state is 1-A1.
 Alpha  occ. eigenvalues --  -20.57598 -11.34547  -1.40647  -0.86423  -0.68808
 Alpha  occ. eigenvalues --   -0.64749  -0.53109  -0.43477
 Alpha virt. eigenvalues --    0.13694   0.18907   0.25800   0.36058   0.66838
 Alpha virt. eigenvalues --    0.66878   0.73779   0.81590   0.90145   0.97230
 Alpha virt. eigenvalues --    1.10823   1.15620   1.29208   1.32547   1.41332
 Alpha virt. eigenvalues --    1.67383   1.69024   1.84536   1.94684   1.95763
 Alpha virt. eigenvalues --    1.98018   2.00108   2.56978   2.67141   2.74308
 Alpha virt. eigenvalues --    3.04523   3.17270   3.42796   3.72481   3.84101
          Condensed to atoms (all electrons):
               1          2          3          4
     1  O    7.723543   0.657569  -0.042515  -0.042515
     2  C    0.657569   4.304367   0.400591   0.400591
     3  H   -0.042515   0.400591   0.684947  -0.072623
     4  H   -0.042515   0.400591  -0.072623   0.684947
 Mulliken charges:
               1
     1  O   -0.296081
     2  C    0.236881
     3  H    0.029600
     4  H    0.029600
 Sum of Mulliken charges =  -0.00000
 Mulliken charges with hydrogens summed into heavy atoms:
               1
     1  O   -0.296081
     2  C    0.296081
 Electronic spatial extent (au):  <R**2>=             59.9319
 Charge=             -0.0000 electrons
 Dipole moment (field-independent basis, Debye):
    X=              0.0000    Y=             -0.0000    Z=             -2.6665  Tot=              2.6665
 Quadrupole moment (field-independent basis, Debye-Ang):
   XX=            -11.5065   YY=            -11.3957   ZZ=            -11.8447
   XY=              0.0000   XZ=              0.0000   YZ=             -0.0000
 Traceless Quadrupole moment (field-independent basis, Debye-Ang):
   XX=              0.0758   YY=              0.1866   ZZ=             -0.2624
   XY=              0.0000   XZ=              0.0000   YZ=             -0.0000
 Octapole moment (field-independent basis, Debye-Ang**2):
  XXX=              0.0000  YYY=              0.0000  ZZZ=              0.3623  XYY=              0.0000
  XXY=             -0.0000  XXZ=              0.6787  XZZ=              0.0000  YZZ=             -0.0000
  YYZ=             -0.3474  XYZ=             -0.0000
 Hexadecapole moment (field-independent basis, Debye-Ang**3):
 XXXX=             -9.5381 YYYY=            -17.3198 ZZZZ=            -43.2238 XXXY=             -0.0000
 XXXZ=             -0.0000 YYYX=             -0.0000 YYYZ=             -0.0000 ZZZX=             -0.0000
 ZZZY=             -0.0000 XXYY=             -4.7829 XXZZ=             -8.7944 YYZZ=             -9.5081
 XXYZ=              0.0000 YYXZ=             -0.0000 ZZXY=             -0.0000
 N-N= 3.135462009273D+01 E-N=-3.311989433060D+02  KE= 1.137239112299D+02
 Symmetry A1   KE= 1.035745193160D+02
 Symmetry A2   KE= 2.464331939006D-35
 Symmetry B1   KE= 3.468788112680D+00
 Symmetry B2   KE= 6.680603801158D+00
 1\1\GINC-B460\SP\RCCSD(T)-FC\CC-pVDZ\C1H2O1\KMOORE\27-Jan-2019\0\\# RH
 F CCSD(T)/cc-pVDZ\\Single Point\\0,1\O,0,0.,0.,0.\C,0,0.,0.,1.201402\H
 ,0,0.937573,0.,1.789196\H,0,-0.937573,0.,1.789196\\Version=ES64L-G09Re
 vE.01\State=1-A1\HF=-113.8764829\MP2=-114.192735\MP3=-114.2011679\MP4D
 =-114.2098334\MP4DQ=-114.2047751\MP4SDQ=-114.2090722\CCSD=-114.2085983
 \CCSD(T)=-114.2184465\RMSD=3.481e-09\PG=C02V [C2(C1O1),SGV(H2)]\\@


 Discoveries are often made by not following instructions,
 by going off the main road, by trying the untried.
 -- Frank Tyger
 Job cpu time:       0 days  0 hours  0 minutes  2.4 seconds.
 File lengths (MBytes):  RWF=     20 Int=      0 D2E=      0 Chk=      1 Scr=      1
 Normal termination of Gaussian 09 at Sun Jan 27 13:22:34 2019.
