
                                 *****************
                                 * O   R   C   A *
                                 *****************

           --- An Ab Initio, DFT and Semiempirical electronic structure package ---

                  #######################################################
                  #                        -***-                        #
                  #  Department of molecular theory and spectroscopy    #
                  #              Directorship: Frank Neese              #
                  # Max Planck Institute for Chemical Energy Conversion #
                  #                  D-45470 Muelheim/Ruhr              #
                  #                       Germany                       #
                  #                                                     #
                  #                  All rights reserved                #
                  #                        -***-                        #
                  #######################################################


                         Program Version 4.0.1.2 - RELEASE -


 With contributions from (in alphabetic order):
   Daniel Aravena         : Magnetic Properties
   Michael Atanasov       : Ab Initio Ligand Field Theory
   Ute Becker             : Parallelization
   Martin Brehm           : Molecular dynamics
   Dmytro Bykov           : SCF Hessian
   Vijay G. Chilkuri      : MRCI spin determinant printing
   Dipayan Datta          : RHF DLPNO-CCSD density
   Achintya Kumar Dutta   : EOM-CC, STEOM-CC
   Dmitry Ganyushin       : Spin-Orbit,Spin-Spin,Magnetic field MRCI
   Yang Guo               : DLPNO-NEVPT2, CIM, IAO-localization
   Andreas Hansen         : Spin unrestricted coupled pair/coupled cluster methods
   Lee Huntington         : MR-EOM, pCC
   Robert Izsak           : Overlap fitted RIJCOSX, COSX-SCS-MP3, EOM
   Christian Kollmar      : KDIIS, OOCD, Brueckner-CCSD(T), CCSD density
   Simone Kossmann        : Meta GGA functionals, TD-DFT gradient, OOMP2, MP2 Hessian
   Martin Krupicka        : AUTO-CI
   Dagmar Lenk            : GEPOL surface
   Dimitrios Liakos       : Extrapolation schemes; parallel MDCI
   Dimitrios Manganas     : ROCIS; embedding schemes
   Dimitrios Pantazis     : SARC Basis sets
   Taras Petrenko         : DFT Hessian,TD-DFT gradient, ASA, ECA, R-Raman, ABS, FL, XAS/XES, NRVS
   Peter Pinski           : DLPNO-MP2
   Christoph Reimann      : Effective Core Potentials
   Marius Retegan         : Local ZFS, SOC
   Christoph Riplinger    : Optimizer, TS searches, QM/MM, DLPNO-CCSD(T), (RO)-DLPNO pert. Triples
   Tobias Risthaus        : Range-separated hybrids, TD-DFT gradient, RPA, STAB
   Michael Roemelt        : Restricted open shell CIS
   Masaaki Saitow         : Open-shell DLPNO
   Barbara Sandhoefer     : DKH picture change effects
   Kantharuban Sivalingam : CASSCF convergence, NEVPT2, FIC-MRCI
   Georgi Stoychev        : AutoAux
   Boris Wezisla          : Elementary symmetry handling
   Frank Wennmohs         : Technical directorship


 We gratefully acknowledge several colleagues who have allowed us to
 interface, adapt or use parts of their codes:
   Stefan Grimme, W. Hujo, H. Kruse,             : VdW corrections, initial TS optimization,
                  C. Bannwarth                     DFT functionals, gCP, sTDA/sTD-DF
   Ed Valeev                                     : LibInt (2-el integral package), F12 methods
   Garnet Chan, S. Sharma, J. Yang, R. Olivares  : DMRG
   Ulf Ekstrom                                   : XCFun DFT Library
   Mihaly Kallay                                 : mrcc  (arbitrary order and MRCC methods)
   Andreas Klamt, Michael Diedenhofen            : otool_cosmo (COSMO solvation model)
   Jiri Pittner, Ondrej Demel                    : Mk-CCSD
   Frank Weinhold                                : gennbo (NPA and NBO analysis)
   Christopher J. Cramer and Donald G. Truhlar   : smd solvation model


 Your calculation uses the libint2 library for the computation of 2-el integrals
 For citations please refer to: http://libint.valeyev.net

 This ORCA versions uses:
   CBLAS   interface :  Fast vector & matrix operations
   LAPACKE interface :  Fast linear algebra routines
   SCALAPACK package :  Parallel linear algebra routines


Your calculation utilizes the basis: cc-pVDZ 
       H, B-Ne : Obtained from the ccRepo (grant-hill.group.shef.ac.uk/ccrepo) Feb. 2017
                 T. H. Dunning, Jr., J. Chem. Phys. 90, 1007 (1989)
            He : Obtained from the ccRepo (grant-hill.group.shef.ac.uk/ccrepo) Feb. 2017
                 D. E. Woon, T. H. Dunning, Jr., J. Chem. Phys. 100, 2975 (1994)
  Li-Be, Na-Mg : Obtained from the ccRepo (grant-hill.group.shef.ac.uk/ccrepo) Feb. 2017
                 B. P. Prascher, D. E. Woon, K. A. Peterson, T. H. Dunning, Jr., A. K. Wilson, Theor. Chem. Acc. 128, 69 (2011)
         Al-Ar : Obtained from the ccRepo (grant-hill.group.shef.ac.uk/ccrepo) Feb. 2017
                 D. E. Woon, T. H. Dunning, Jr., J. Chem. Phys. 98, 1358 (1993)
            Ca : Obtained from the Peterson Research Group Website (tyr0.chem.wsu.edu/~kipeters) Feb. 2017
                 J. Koput, K. A. Peterson, J. Phys. Chem. 106, 9595 (2002)
         Sc-Zn : Obtained from the ccRepo (grant-hill.group.shef.ac.uk/ccrepo) Feb. 2017
                 N. B. Balabanov, K. A. Peterson, J. Chem. Phys. 123, 064107 (2005)
                 N. B. Balabanov, K. A. Peterson, J. Chem. Phys. 125, 074110 (2006)
         Ga-Kr : Obtained from the ccRepo (grant-hill.group.shef.ac.uk/ccrepo) Feb. 2017
                 A. K. Wilson, D. E. Woon, K. A. Peterson, T. H. Dunning, Jr., J. Chem. Phys. 110, 7667 (1999)

================================================================================
                                        WARNINGS
                       Please study these warnings very carefully!
================================================================================

Warning: TCutStore was < 0. Adjusted to Thresh (uncritical)

WARNING: Geometry Optimization
  ===> : Switching off AutoStart
         For restart on a previous wavefunction, please use MOREAD

INFO   : the flag for use of LIBINT has been found!

================================================================================
                                       INPUT FILE
================================================================================
NAME = /scratch/kmoore/ORCASCR_1548729393009197598/input.dat
|  1> # Orca 4.0 Computation 
|  2> 
|  3> ! B3LYP/G 
|  4> ! cc-pVDZ 
|  5> ! OptTs
|  6> ! AnFreq
|  7> 
|  8> % geom
|  9>   Calc_Hess true
| 10> end  
| 11> 
| 12> * gzmt 0 1
| 13> H
| 14> O 1 0.990
| 15> C 2 1.398 1 106.0
| 16> H 3 1.109 2 108.9 1    0.0
| 17> H 3 1.112 4 108.2 2  119.0
| 18> H 3 1.112 4 108.2 2 -119.0
| 19> *
| 20> 
| 21> 
| 22>                          ****END OF INPUT****
================================================================================

                       *****************************
                       * Geometry Optimization Run *
                       *****************************

Geometry optimization settings:
Update method            Update   .... Bofill
Choice of coordinates    CoordSys .... Redundant Internals
Initial Hessian          InHess   .... Almoef's Model

Convergence Tolerances:
Energy Change            TolE     ....  5.0000e-06 Eh
Max. Gradient            TolMAXG  ....  3.0000e-04 Eh/bohr
RMS Gradient             TolRMSG  ....  1.0000e-04 Eh/bohr
Max. Displacement        TolMAXD  ....  4.0000e-03 bohr
RMS Displacement         TolRMSD  ....  2.0000e-03 bohr

------------------------------------------------------------------------------
                        ORCA OPTIMIZATION COORDINATE SETUP
------------------------------------------------------------------------------

The optimization will be done in new redundant internal coordinates
Making redundant internal coordinates   ...  (new redundants) done
Following TS mode number                ...     0
Evaluating the initial hessian          ...  (Is done on the fly) done
Evaluating the coordinates              ...  done
Calculating the B-matrix                .... done
Calculating the G-matrix                .... done
Diagonalizing the G-matrix              .... done
The first mode is                       ....    3
The number of degrees of freedom        ....   12

    -----------------------------------------------------------------
                    Redundant Internal Coordinates


    -----------------------------------------------------------------
         Definition                    Initial Value    d2E/dq (diagonal element)
    -----------------------------------------------------------------
      1. B(O   1,H   0)                  0.9900         0.000000   
      2. B(C   2,O   1)                  1.3980         0.000000   
      3. B(H   3,C   2)                  1.1090         0.000000   
      4. B(H   4,C   2)                  1.1120         0.000000   
      5. B(H   5,C   2)                  1.1120         0.000000   
      6. A(H   0,O   1,C   2)          106.0000         0.000000   
      7. A(O   1,C   2,H   4)          109.5454         0.000000   
      8. A(H   3,C   2,H   4)          108.2000         0.000000   
      9. A(O   1,C   2,H   5)          109.5454         0.000000   
     10. A(H   3,C   2,H   5)          108.2000         0.000000   
     11. A(H   4,C   2,H   5)          112.3752         0.000000   
     12. A(O   1,C   2,H   3)          108.9000         0.000000   
     13. D(H   4,C   2,O   1,H   0)   -118.1556         0.000000   
     14. D(H   5,C   2,O   1,H   0)    118.1556         0.000000   
     15. D(H   3,C   2,O   1,H   0)      0.0000         0.000000   
    -----------------------------------------------------------------

Number of atoms                         .... 6
Number of degrees of freedom            .... 15

         *************************************************************
         *                GEOMETRY OPTIMIZATION CYCLE   1            *
         *************************************************************
---------------------------------
CARTESIAN COORDINATES (ANGSTROEM)
---------------------------------
  H      0.000000    0.000000    0.000000
  O      0.990000    0.000000    0.000000
  C      1.375341    1.343844    0.000000
  H      0.465793    1.978354    0.000000
  H      1.953211    1.565159   -0.923921
  H      1.953211    1.565159    0.923921

----------------------------
CARTESIAN COORDINATES (A.U.)
----------------------------
  NO LB      ZA    FRAG     MASS         X           Y           Z
   0 H     1.0000    0     1.008    0.000000    0.000000    0.000000
   1 O     8.0000    0    15.999    1.870829    0.000000    0.000000
   2 C     6.0000    0    12.011    2.599018    2.539497    0.000000
   3 H     1.0000    0     1.008    0.880220    3.738547    0.000000
   4 H     1.0000    0     1.008    3.691033    2.957722   -1.745958
   5 H     1.0000    0     1.008    3.691033    2.957722    1.745958

--------------------------------
INTERNAL COORDINATES (ANGSTROEM)
--------------------------------
 H      0   0   0     0.000000000000     0.00000000     0.00000000
 O      1   0   0     0.990000000000     0.00000000     0.00000000
 C      2   1   0     1.398000000000   106.00000000     0.00000000
 H      3   2   1     1.109000000000   108.90000000     0.00000000
 H      3   4   2     1.112000000000   108.20000000   119.00000000
 H      3   4   2     1.112000000000   108.20000000  -119.00000000

---------------------------
INTERNAL COORDINATES (A.U.)
---------------------------
 H      0   0   0     0.000000000000     0.00000000     0.00000000
 O      1   0   0     1.870828872582     0.00000000     0.00000000
 C      2   1   0     2.641837135222   106.00000000     0.00000000
 H      3   2   1     2.095706282519   108.90000000     0.00000000
 H      3   4   2     2.101375460920   108.20000000   119.00000000
 H      3   4   2     2.101375460920   108.20000000  -119.00000000

---------------------
BASIS SET INFORMATION
---------------------
There are 3 groups of distinct atoms

 Group   1 Type H   : 4s1p contracted to 2s1p pattern {31/1}
 Group   2 Type O   : 17s4p1d contracted to 3s2p1d pattern {881/31/1}
 Group   3 Type C   : 17s4p1d contracted to 3s2p1d pattern {881/31/1}

Atom   0H    basis set group =>   1
Atom   1O    basis set group =>   2
Atom   2C    basis set group =>   3
Atom   3H    basis set group =>   1
Atom   4H    basis set group =>   1
Atom   5H    basis set group =>   1
------------------------------------------------------------------------------
                           ORCA GTO INTEGRAL CALCULATION
------------------------------------------------------------------------------

                         BASIS SET STATISTICS AND STARTUP INFO

 # of primitive gaussian shells          ...   64
 # of primitive gaussian functions       ...   96
 # of contracted shells                  ...   24
 # of contracted basis functions         ...   48
 Highest angular momentum                ...    2
 Maximum contraction depth               ...    8
 Integral package used                   ... LIBINT
 Integral threshhold            Thresh   ...  2.500e-11
 Primitive cut-off              TCut     ...  2.500e-12


------------------------------ INTEGRAL EVALUATION ----------------------------


 * One electron integrals 
 Pre-screening matrix                    ... done
 Shell pair data                         ... done (   0.000 sec)

-------------------------------------------------------------------------------
                                 ORCA SCF
-------------------------------------------------------------------------------

------------
SCF SETTINGS
------------
Hamiltonian:
 Density Functional     Method          .... DFT(GTOs)
 Exchange Functional    Exchange        .... B88
   X-Alpha parameter    XAlpha          ....  0.666667
   Becke's b parameter  XBeta           ....  0.004200
 Correlation Functional Correlation     .... LYP
 LDA part of GGA corr.  LDAOpt          .... VWN-3
 Gradients option       PostSCFGGA      .... off
 Hybrid DFT is turned on
   Fraction HF Exchange ScalHFX         ....  0.200000
   Scaling of DF-GGA-X  ScalDFX         ....  0.720000
   Scaling of DF-GGA-C  ScalDFC         ....  0.810000
   Scaling of DF-LDA-C  ScalLDAC        ....  1.000000
   Perturbative correction              ....  0.000000
   NL short-range parameter             ....  4.800000


General Settings:
 Integral files         IntName         .... /scratch/kmoore/ORCASCR_1548729393009197598/input
 Hartree-Fock type      HFTyp           .... RHF
 Total Charge           Charge          ....    0
 Multiplicity           Mult            ....    1
 Number of Electrons    NEL             ....   18
 Basis Dimension        Dim             ....   48
 Nuclear Repulsion      ENuc            ....     40.3864374706 Eh

Convergence Acceleration:
 DIIS                   CNVDIIS         .... on
   Start iteration      DIISMaxIt       ....    12
   Startup error        DIISStart       ....  0.200000
   # of expansion vecs  DIISMaxEq       ....     5
   Bias factor          DIISBfac        ....   1.050
   Max. coefficient     DIISMaxC        ....  10.000
 Newton-Raphson         CNVNR           .... off
 SOSCF                  CNVSOSCF        .... on
   Start iteration      SOSCFMaxIt      ....   150
   Startup grad/error   SOSCFStart      ....  0.003300
 Level Shifting         CNVShift        .... on
   Level shift para.    LevelShift      ....    0.2500
   Turn off err/grad.   ShiftErr        ....    0.0010
 Zerner damping         CNVZerner       .... off
 Static damping         CNVDamp         .... on
   Fraction old density DampFac         ....    0.7000
   Max. Damping (<1)    DampMax         ....    0.9800
   Min. Damping (>=0)   DampMin         ....    0.0000
   Turn off err/grad.   DampErr         ....    0.1000
 Fernandez-Rico         CNVRico         .... off

SCF Procedure:
 Maximum # iterations   MaxIter         ....   125
 SCF integral mode      SCFMode         .... Direct
   Integral package                     .... LIBINT
 Reset frequeny         DirectResetFreq ....    20
 Integral Threshold     Thresh          ....  2.500e-11 Eh
 Primitive CutOff       TCut            ....  2.500e-12 Eh

Convergence Tolerance:
 Convergence Check Mode ConvCheckMode   .... Total+1el-Energy
 Convergence forced     ConvForced      .... 0
 Energy Change          TolE            ....  1.000e-08 Eh
 1-El. energy change                    ....  1.000e-05 Eh
 Orbital Gradient       TolG            ....  1.000e-05
 Orbital Rotation angle TolX            ....  1.000e-05
 DIIS Error             TolErr          ....  5.000e-07


Diagonalization of the overlap matrix:
Smallest eigenvalue                        ... 1.622e-02
Time for diagonalization                   ...    0.001 sec
Threshold for overlap eigenvalues          ... 1.000e-08
Number of eigenvalues below threshold      ... 0
Time for construction of square roots      ...    0.000 sec
Total time needed                          ...    0.001 sec

-------------------
DFT GRID GENERATION
-------------------

General Integration Accuracy     IntAcc      ...  4.340
Radial Grid Type                 RadialGrid  ... Gauss-Chebyshev
Angular Grid (max. acc.)         AngularGrid ... Lebedev-110
Angular grid pruning method      GridPruning ... 3 (G Style)
Weight generation scheme         WeightScheme... Becke
Basis function cutoff            BFCut       ...    1.0000e-11
Integration weight cutoff        WCut        ...    1.0000e-14
Grids for H and He will be reduced by one unit

# of grid points (after initial pruning)     ...   6548 (   0.0 sec)
# of grid points (after weights+screening)   ...   6372 (   0.0 sec)
nearest neighbour list constructed           ...    0.0 sec
Grid point re-assignment to atoms done       ...    0.0 sec
Grid point division into batches done        ...    0.0 sec
Reduced shell lists constructed in    0.0 sec

Total number of grid points                  ...     6372
Total number of batches                      ...      102
Average number of points per batch           ...       62
Average number of grid points per atom       ...     1062
Average number of shells per batch           ...    22.64 (94.34%)
Average number of basis functions per batch  ...    44.89 (93.53%)
Average number of large shells per batch     ...    21.13 (93.31%)
Average number of large basis fcns per batch ...    41.63 (92.73%)
Maximum spatial batch extension              ...  21.15, 25.60, 21.59 au
Average spatial batch extension              ...   4.84,  5.96,  5.55 au

Time for grid setup =    0.051 sec

------------------------------
INITIAL GUESS: MODEL POTENTIAL
------------------------------
Loading Hartree-Fock densities                     ... done
Calculating cut-offs                               ... done
Setting up the integral package                    ... done
Initializing the effective Hamiltonian             ... done
Starting the Coulomb interaction                   ... done (   0.0 sec)
Reading the grid                                   ... done
Mapping shells                                     ... done
Starting the XC term evaluation                    ... done (   0.1 sec)
  promolecular density results
     # of electrons  =     17.998658821
     EX              =    -14.505268915
     EC              =     -0.589732747
     EX+EC           =    -15.095001662
Transforming the Hamiltonian                       ... done (   0.0 sec)
Diagonalizing the Hamiltonian                      ... done (   0.0 sec)
Back transforming the eigenvectors                 ... done (   0.0 sec)
Now organizing SCF variables                       ... done
                      ------------------
                      INITIAL GUESS DONE (   0.2 sec)
                      ------------------
--------------
SCF ITERATIONS
--------------
ITER       Energy         Delta-E        Max-DP      RMS-DP      [F,P]     Damp
               ***  Starting incremental Fock matrix formation  ***
  0   -115.6256185009   0.000000000000 0.07816591  0.00432553  0.2728813 0.7000
  1   -115.6695731296  -0.043954628746 0.04510523  0.00284560  0.1219174 0.7000
                               ***Turning on DIIS***
  2   -115.6858739329  -0.016300803313 0.05656607  0.00435817  0.0345712 0.0000
  3   -115.7122063586  -0.026332425674 0.03050591  0.00189071  0.0654089 0.0000
  4   -115.7178710640  -0.005664705387 0.00628135  0.00049970  0.0092664 0.0000
  5   -115.7180835935  -0.000212529522 0.00189228  0.00018499  0.0038500 0.0000
                      *** Initiating the SOSCF procedure ***
                           *** Shutting down DIIS ***
                      *** Re-Reading the Fockian *** 
                      *** Removing any level shift *** 
ITER      Energy       Delta-E        Grad      Rot      Max-DP    RMS-DP
  6   -115.71810525  -0.0000216547  0.000283  0.000283  0.001259  0.000092
               *** Restarting incremental Fock matrix formation ***
  7   -115.71810629  -0.0000010419  0.000050  0.000055  0.000148  0.000009
  8   -115.71810628   0.0000000117  0.000068  0.000038  0.000096  0.000006
  9   -115.71810632  -0.0000000428  0.000006  0.000009  0.000018  0.000001
 10   -115.71810632   0.0000000001  0.000007  0.000005  0.000010  0.000001
                 **** Energy Check signals convergence ****
              ***Rediagonalizing the Fockian in SOSCF/NRSCF***

               *****************************************************
               *                     SUCCESS                       *
               *           SCF CONVERGED AFTER  11 CYCLES          *
               *****************************************************

Setting up the final grid:

General Integration Accuracy     IntAcc      ...  4.670
Radial Grid Type                 RadialGrid  ... Gauss-Chebyshev
Angular Grid (max. acc.)         AngularGrid ... Lebedev-302
Angular grid pruning method      GridPruning ... 3 (G Style)
Weight generation scheme         WeightScheme... Becke
Basis function cutoff            BFCut       ...    1.0000e-11
Integration weight cutoff        WCut        ...    1.0000e-14
Grids for H and He will be reduced by one unit

# of grid points (after initial pruning)     ...  26000 (   0.0 sec)
# of grid points (after weights+screening)   ...  25165 (   0.0 sec)
nearest neighbour list constructed           ...    0.0 sec
Grid point re-assignment to atoms done       ...    0.0 sec
Grid point division into batches done        ...    0.1 sec
Reduced shell lists constructed in    0.2 sec

Total number of grid points                  ...    25165
Total number of batches                      ...      397
Average number of points per batch           ...       63
Average number of grid points per atom       ...     4194
Average number of shells per batch           ...    21.07 (87.78%)
Average number of basis functions per batch  ...    41.45 (86.35%)
Average number of large shells per batch     ...    19.12 (90.76%)
Average number of large basis fcns per batch ...    37.43 (90.31%)
Maximum spatial batch extension              ...  23.60, 24.43, 30.22 au
Average spatial batch extension              ...   3.22,  3.31,  3.25 au

Final grid set up in    0.2 sec
Final integration                            ... done (   0.2 sec)
Change in XC energy                          ...    -0.000086605
Integrated number of electrons               ...    17.999986701
Previous integrated no of electrons          ...    17.998966803

----------------
TOTAL SCF ENERGY
----------------

Total Energy       :         -115.71819293 Eh           -3148.85211 eV

Components:
Nuclear Repulsion  :           40.38643747 Eh            1098.97083 eV
Electronic Energy  :         -156.10463040 Eh           -4247.82295 eV
One Electron Energy:         -237.24704653 Eh           -6455.82034 eV
Two Electron Energy:           81.14241613 Eh            2207.99740 eV

Virial components:
Potential Energy   :         -230.68660672 Eh           -6277.30170 eV
Kinetic Energy     :          114.96841380 Eh            3128.44959 eV
Virial Ratio       :            2.00652161


DFT components:
N(Alpha)           :        8.999993350303 electrons
N(Beta)            :        8.999993350303 electrons
N(Total)           :       17.999986700606 electrons
E(X)               :      -11.781422585499 Eh       
E(C)               :       -0.769579438123 Eh       
E(XC)              :      -12.551002023622 Eh       

---------------
SCF CONVERGENCE
---------------

  Last Energy change         ...   -5.2563e-10  Tolerance :   1.0000e-08
  Last MAX-Density change    ...    6.5798e-07  Tolerance :   1.0000e-07
  Last RMS-Density change    ...    3.1107e-08  Tolerance :   5.0000e-09
  Last Orbital Gradient      ...    1.9074e-07  Tolerance :   1.0000e-05
  Last Orbital Rotation      ...    2.2493e-07  Tolerance :   1.0000e-05

             **** THE GBW FILE WAS UPDATED (/scratch/kmoore/ORCASCR_1548729393009197598/input.gbw) ****
             **** DENSITY FILE WAS UPDATED (/scratch/kmoore/ORCASCR_1548729393009197598/input.scfp.tmp) ****
             **** ENERGY FILE WAS UPDATED (/scratch/kmoore/ORCASCR_1548729393009197598/input.en.tmp) ****
----------------
ORBITAL ENERGIES
----------------

  NO   OCC          E(Eh)            E(eV) 
   0   2.0000     -19.127646      -520.4897 
   1   2.0000     -10.226640      -278.2810 
   2   2.0000      -1.012431       -27.5497 
   3   2.0000      -0.668309       -18.1856 
   4   2.0000      -0.500558       -13.6209 
   5   2.0000      -0.436621       -11.8811 
   6   2.0000      -0.418112       -11.3774 
   7   2.0000      -0.322166        -8.7666 
   8   2.0000      -0.260665        -7.0931 
   9   0.0000       0.042893         1.1672 
  10   0.0000       0.091259         2.4833 
  11   0.0000       0.137895         3.7523 
  12   0.0000       0.139340         3.7916 
  13   0.0000       0.205227         5.5845 
  14   0.0000       0.443389        12.0652 
  15   0.0000       0.461798        12.5662 
  16   0.0000       0.493175        13.4200 
  17   0.0000       0.578766        15.7490 
  18   0.0000       0.622555        16.9406 
  19   0.0000       0.626064        17.0361 
  20   0.0000       0.642013        17.4701 
  21   0.0000       0.876318        23.8458 
  22   0.0000       0.897565        24.4240 
  23   0.0000       0.946323        25.7508 
  24   0.0000       1.021270        27.7902 
  25   0.0000       1.061912        28.8961 
  26   0.0000       1.155841        31.4520 
  27   0.0000       1.355524        36.8857 
  28   0.0000       1.395436        37.9717 
  29   0.0000       1.447121        39.3782 
  30   0.0000       1.574060        42.8323 
  31   0.0000       1.622502        44.1505 
  32   0.0000       1.632634        44.4262 
  33   0.0000       1.652809        44.9752 
  34   0.0000       1.750462        47.6325 
  35   0.0000       1.800116        48.9836 
  36   0.0000       1.988870        54.1199 
  37   0.0000       2.080393        56.6104 
  38   0.0000       2.082061        56.6557 
  39   0.0000       2.111155        57.4474 
  40   0.0000       2.359906        64.2163 
  41   0.0000       2.385466        64.9118 
  42   0.0000       2.430649        66.1413 
  43   0.0000       2.939934        79.9997 
  44   0.0000       3.014865        82.0387 
  45   0.0000       3.075763        83.6958 
  46   0.0000       3.195231        86.9467 
  47   0.0000       3.647558        99.2551 

                    ********************************
                    * MULLIKEN POPULATION ANALYSIS *
                    ********************************

-----------------------
MULLIKEN ATOMIC CHARGES
-----------------------
   0 H :    0.146491
   1 O :   -0.283823
   2 C :    0.091530
   3 H :    0.005305
   4 H :    0.020248
   5 H :    0.020248
Sum of atomic charges:    0.0000000

--------------------------------
MULLIKEN REDUCED ORBITAL CHARGES
--------------------------------
  0 H s       :     0.775223  s :     0.775223
      pz      :     0.022469  p :     0.078286
      px      :     0.040355
      py      :     0.015462
  1 O s       :     3.721804  s :     3.721804
      pz      :     1.898004  p :     4.548375
      px      :     1.244899
      py      :     1.405472
      dz2     :     0.002061  d :     0.013644
      dxz     :     0.000652
      dyz     :     0.002071
      dx2y2   :     0.006888
      dxy     :     0.001972
  2 C s       :     3.046303  s :     3.046303
      pz      :     1.009436  p :     2.767943
      px      :     1.005603
      py      :     0.752904
      dz2     :     0.013670  d :     0.094224
      dxz     :     0.011344
      dyz     :     0.022541
      dx2y2   :     0.022210
      dxy     :     0.024460
  3 H s       :     0.967275  s :     0.967275
      pz      :     0.006460  p :     0.027420
      px      :     0.012640
      py      :     0.008320
  4 H s       :     0.953437  s :     0.953437
      pz      :     0.013826  p :     0.026315
      px      :     0.008969
      py      :     0.003521
  5 H s       :     0.953437  s :     0.953437
      pz      :     0.013826  p :     0.026315
      px      :     0.008969
      py      :     0.003521


                     *******************************
                     * LOEWDIN POPULATION ANALYSIS *
                     *******************************

----------------------
LOEWDIN ATOMIC CHARGES
----------------------
   0 H :    0.059279
   1 O :   -0.051495
   2 C :   -0.046908
   3 H :    0.010295
   4 H :    0.014414
   5 H :    0.014414

-------------------------------
LOEWDIN REDUCED ORBITAL CHARGES
-------------------------------
  0 H s       :     0.750677  s :     0.750677
      pz      :     0.057222  p :     0.190045
      px      :     0.096864
      py      :     0.035959
  1 O s       :     3.410814  s :     3.410814
      pz      :     1.840231  p :     4.615113
      px      :     1.331754
      py      :     1.443129
      dz2     :     0.003738  d :     0.025568
      dxz     :     0.000421
      dyz     :     0.002975
      dx2y2   :     0.014826
      dxy     :     0.003609
  2 C s       :     2.829594  s :     2.829594
      pz      :     1.068632  p :     2.967049
      px      :     1.055235
      py      :     0.843183
      dz2     :     0.038174  d :     0.250264
      dxz     :     0.042520
      dyz     :     0.056630
      dx2y2   :     0.052410
      dxy     :     0.060530
  3 H s       :     0.916605  s :     0.916605
      pz      :     0.015040  p :     0.073100
      px      :     0.034542
      py      :     0.023518
  4 H s       :     0.912721  s :     0.912721
      pz      :     0.037720  p :     0.072865
      px      :     0.023401
      py      :     0.011743
  5 H s       :     0.912721  s :     0.912721
      pz      :     0.037720  p :     0.072865
      px      :     0.023401
      py      :     0.011743


                      *****************************
                      * MAYER POPULATION ANALYSIS *
                      *****************************

  NA   - Mulliken gross atomic population
  ZA   - Total nuclear charge
  QA   - Mulliken gross atomic charge
  VA   - Mayer's total valence
  BVA  - Mayer's bonded valence
  FA   - Mayer's free valence

  ATOM       NA         ZA         QA         VA         BVA        FA
  0 H      0.8535     1.0000     0.1465     1.0318     1.0318     0.0000
  1 O      8.2838     8.0000    -0.2838     2.1278     2.1278    -0.0000
  2 C      5.9085     6.0000     0.0915     4.0339     4.0339     0.0000
  3 H      0.9947     1.0000     0.0053     0.9676     0.9676     0.0000
  4 H      0.9798     1.0000     0.0202     0.9696     0.9696     0.0000
  5 H      0.9798     1.0000     0.0202     0.9696     0.9696     0.0000

  Mayer bond orders larger than 0.1
B(  0-H ,  1-O ) :   1.0087 B(  1-O ,  2-C ) :   1.0927 B(  2-C ,  3-H ) :   0.9831 
B(  2-C ,  4-H ) :   0.9708 B(  2-C ,  5-H ) :   0.9708 

-------
TIMINGS
-------

Total SCF time: 0 days 0 hours 0 min 5 sec 

Total time                  ....       5.115 sec
Sum of individual times     ....       5.097 sec  ( 99.7%)

Fock matrix formation       ....       4.614 sec  ( 90.2%)
  XC integration            ....       0.844 sec  ( 18.3% of F)
    Basis function eval.    ....       0.557 sec  ( 66.0% of XC)
    Density eval.           ....       0.067 sec  (  8.0% of XC)
    XC-Functional eval.     ....       0.091 sec  ( 10.8% of XC)
    XC-Potential eval.      ....       0.111 sec  ( 13.2% of XC)
Diagonalization             ....       0.004 sec  (  0.1%)
Density matrix formation    ....       0.000 sec  (  0.0%)
Population analysis         ....       0.001 sec  (  0.0%)
Initial guess               ....       0.175 sec  (  3.4%)
Orbital Transformation      ....       0.000 sec  (  0.0%)
Orbital Orthonormalization  ....       0.000 sec  (  0.0%)
DIIS solution               ....       0.001 sec  (  0.0%)
SOSCF solution              ....       0.002 sec  (  0.0%)
Grid generation             ....       0.300 sec  (  5.9%)

-------------------------   --------------------
FINAL SINGLE POINT ENERGY      -115.718192926543
-------------------------   --------------------

------------------------------------------------------------------------------
                         ORCA SCF GRADIENT CALCULATION
------------------------------------------------------------------------------

Gradient of the Kohn-Sham DFT energy:
Kohn-Sham wavefunction type      ... RKS
Hartree-Fock exchange scaling    ...    0.200
Number of operators              ...    1
Number of atoms                  ...    6
Basis set dimensions             ...   48
Integral neglect threshold       ... 2.5e-11
Integral primitive cutoff        ... 2.5e-12

Nuclear repulsion gradient       ... done
One Electron Gradient            ... done
Pre-screening matrix             ... done
Starting the two electron gradient:
Two electron gradient done
Exchange-correlation gradient    ... done

------------------
CARTESIAN GRADIENT
------------------

   1   H   :   -0.023817736    0.004744151   -0.000000000
   2   O   :    0.028718443    0.019390563    0.000000000
   3   C   :    0.006275802   -0.010834261    0.000000000
   4   H   :   -0.006925959   -0.006422641   -0.000000000
   5   H   :   -0.002125275   -0.003438906   -0.006750799
   6   H   :   -0.002125275   -0.003438906    0.006750799

Difference to translation invariance:
           :    0.0000000000   -0.0000000000    0.0000000000

Norm of the cartesian gradient     ...    0.0464795966
RMS gradient                       ...    0.0109553460
MAX gradient                       ...    0.0287184433

-------
TIMINGS
-------

Total SCF gradient time            ...        1.151 sec

One electron gradient       ....       0.010 sec  (  0.8%)
Prescreening matrices       ....       0.031 sec  (  2.7%)
Two electron gradient       ....       0.444 sec  ( 38.6%)
XC gradient                 ....       0.535 sec  ( 46.5%)

-------------------------------------------------------------------------------
                               ORCA SCF HESSIAN
-------------------------------------------------------------------------------

Hessian of the Kohn-Sham DFT energy:
Kohn-Sham wavefunction type                      ... RKS
Hartree-Fock exchange scaling                    ...    0.200
Number of operators                              ...    1
Number of atoms                                  ...    6
Basis set dimensions                             ...   48
Integral neglect threshold                       ... 2.5e-11
Integral primitive cutoff                        ... 2.5e-12

Setting up DFT Hessian calculations              ... 
Electron density on the grid                     ... found on disk
Electron density on the final grid               ... found on disk
Building xc-kernel on the grid                   ... done   (      0.0 sec)
Building xc-kernel on the final grid             ... done   (      0.0 sec)
                                                     done   (      0.1 sec)

Nuclear repulsion Hessian                        ... done   (      0.0 sec)

----------------------------------------------
Forming right-hand sides of CP-SCF equations     ...
----------------------------------------------
One electron integral derivatives                ... done   (      0.1 sec)
Transforming the overlap derivative matrices     ... done   (      0.0 sec)
Making the Q(x) pseudodensities                  ... done   (      0.0 sec)
Adding the E*S(x)*S(y) terms to the Hessian      ... done   (      0.0 sec)
Calculating energy weighted overlap derivatives  ... done   (      0.0 sec)
Two electron integral derivatives                ... done   (      0.7 sec)
Exchange-correlation integral derivatives        ... done   (      2.4 sec)
tr(F(y)Q(x)) contribution to the Hessian         ... done   (      0.0 sec)
Response fock operator R(S(x))                   ... done   (      0.4 sec)
XC Response fock operator R(S(x))                ... done   (      0.9 sec)
tr(F(y)S(x)) contribution to the Hessian         ... done   (      0.0 sec)
Transforming and finalizing RHSs                 ... done   (      0.0 sec)

----------------------------------------------
Solving the CP-SCF equations                     ...
----------------------------------------------
     CP-SCF ITERATION   0: 
     CP-SCF ITERATION   1:      0.000853087947
     CP-SCF ITERATION   2:      0.000043425715
     CP-SCF ITERATION   3:      0.000002736717
     CP-SCF ITERATION   4:      0.000000096038
     CP-SCF ITERATION   5:      0.000000004902

                                                 ... done   (      5.1 sec)
Forming perturbed density Hessian contributions  ... done   (      0.0 sec)
Making the perturbed densities                   ... done   (      0.0 sec)
2nd integral derivative contribs                 ... done   (      2.8 sec)
Exchange-correlation Hessian                     ... done   (      3.1 sec)
Dipol derivatives                                ... done   (      0.1 sec)

Total SCF Hessian time: 0 days 0 hours 0 min 15 sec 

Writing the Hessian file to the disk             ... done


-----------------------
VIBRATIONAL FREQUENCIES
-----------------------

   0:         0.00 cm**-1
   1:         0.00 cm**-1
   2:         0.00 cm**-1
   3:         0.00 cm**-1
   4:         0.00 cm**-1
   5:         0.00 cm**-1
   6:       428.37 cm**-1
   7:      1143.10 cm**-1
   8:      1171.33 cm**-1
   9:      1215.54 cm**-1
  10:      1449.39 cm**-1
  11:      1466.79 cm**-1
  12:      1480.13 cm**-1
  13:      1484.21 cm**-1
  14:      2925.09 cm**-1
  15:      2999.43 cm**-1
  16:      3006.03 cm**-1
  17:      3487.95 cm**-1


------------
NORMAL MODES
------------

These modes are the cartesian displacements weighted by the diagonal matrix
M(i,i)=1/sqrt(m[i]) where m[i] is the mass of the displaced atom
Thus, these vectors are normalized but *not* orthogonal

                  0          1          2          3          4          5    
      0       0.000000   0.000000   0.000000   0.000000   0.000000   0.000000
      1       0.000000   0.000000   0.000000   0.000000   0.000000   0.000000
      2       0.000000   0.000000   0.000000   0.000000   0.000000   0.000000
      3       0.000000   0.000000   0.000000   0.000000   0.000000   0.000000
      4       0.000000   0.000000   0.000000   0.000000   0.000000   0.000000
      5       0.000000   0.000000   0.000000   0.000000   0.000000   0.000000
      6       0.000000   0.000000   0.000000   0.000000   0.000000   0.000000
      7       0.000000   0.000000   0.000000   0.000000   0.000000   0.000000
      8       0.000000   0.000000   0.000000   0.000000   0.000000   0.000000
      9       0.000000   0.000000   0.000000   0.000000   0.000000   0.000000
     10       0.000000   0.000000   0.000000   0.000000   0.000000   0.000000
     11       0.000000   0.000000   0.000000   0.000000   0.000000   0.000000
     12       0.000000   0.000000   0.000000   0.000000   0.000000   0.000000
     13       0.000000   0.000000   0.000000   0.000000   0.000000   0.000000
     14       0.000000   0.000000   0.000000   0.000000   0.000000   0.000000
     15       0.000000   0.000000   0.000000   0.000000   0.000000   0.000000
     16       0.000000   0.000000   0.000000   0.000000   0.000000   0.000000
     17       0.000000   0.000000   0.000000   0.000000   0.000000   0.000000
                  6          7          8          9         10         11    
      0      -0.000000   0.086256   0.033245  -0.000000  -0.043826   0.000000
      1      -0.000000  -0.428843   0.410297  -0.000000  -0.877843   0.000000
      2      -0.880674  -0.000000   0.000000  -0.142887   0.000000  -0.011800
      3      -0.000000   0.071237   0.013063  -0.000000  -0.055482   0.000000
      4       0.000000   0.182451   0.153171   0.000000   0.040221  -0.000000
      5       0.070677  -0.000000   0.000000  -0.052189  -0.000000  -0.010031
      6       0.000000  -0.143510   0.040134   0.000000   0.108836  -0.000000
      7       0.000000  -0.154535  -0.228969  -0.000000  -0.002480  -0.000000
      8      -0.021058   0.000000  -0.000000   0.134003  -0.000000  -0.056455
      9       0.000000   0.222316  -0.275203  -0.000000   0.067194   0.000000
     10       0.000000   0.367586  -0.652385  -0.000000  -0.047635   0.000000
     11       0.277469  -0.000000   0.000000  -0.252523   0.000000   0.728579
     12      -0.201265   0.135388  -0.221804  -0.286748  -0.219805   0.280636
     13       0.112134  -0.496609   0.269638  -0.574948   0.158318  -0.388334
     14      -0.133834   0.075396  -0.062194  -0.186488  -0.169384   0.057563
     15       0.201265   0.135388  -0.221804   0.286748  -0.219805  -0.280636
     16      -0.112134  -0.496609   0.269638   0.574948   0.158318   0.388334
     17      -0.133834  -0.075396   0.062194  -0.186488   0.169384   0.057563
                 12         13         14         15         16         17    
      0       0.008013  -0.022347   0.006039   0.000000   0.041944   0.997095
      1       0.175423  -0.244682  -0.002490   0.000000  -0.005719   0.010620
      2      -0.000000   0.000000  -0.000000  -0.013150   0.000000  -0.000000
      3       0.019726  -0.027187   0.000181  -0.000000  -0.002882  -0.062621
      4      -0.027282   0.003609   0.003421   0.000000   0.000553  -0.003659
      5       0.000000  -0.000000   0.000000   0.001239  -0.000000   0.000000
      6      -0.026465  -0.032988   0.024100   0.000000   0.086496  -0.004234
      7      -0.090526  -0.041952   0.036159  -0.000000  -0.032225   0.003887
      8       0.000000  -0.000000  -0.000000  -0.095868   0.000000  -0.000000
      9       0.451843  -0.022608   0.365092  -0.000000  -0.740513   0.033684
     10       0.634568  -0.051357  -0.248587   0.000000   0.506081  -0.007850
     11      -0.000000   0.000000  -0.000000  -0.022557   0.000000   0.000000
     12      -0.228795   0.434766  -0.330590  -0.379040  -0.143176   0.006792
     13       0.350855   0.369323  -0.117038  -0.126248  -0.062574   0.004494
     14      -0.026481   0.375527   0.527728   0.579183   0.261124  -0.014005
     15      -0.228795   0.434766  -0.330590   0.379040  -0.143176   0.006792
     16       0.350855   0.369323  -0.117038   0.126248  -0.062574   0.004494
     17       0.026481  -0.375527  -0.527728   0.579183  -0.261124   0.014005


-----------
IR SPECTRUM
-----------

 Mode    freq (cm**-1)   T**2         TX         TY         TZ
-------------------------------------------------------------------
   6:       428.37   64.680643  ( -0.000000  -0.000000  -8.042428)
   7:      1143.10   89.719082  ( -3.153022  -8.931827   0.000000)
   8:      1171.33   18.247571  ( -1.888652  -3.831523  -0.000000)
   9:      1215.54    0.014832  ( -0.000000  -0.000000  -0.121787)
  10:      1449.39   35.573776  ( -1.664073  -5.727533   0.000000)
  11:      1466.79    0.637784  (  0.000000   0.000000   0.798614)
  12:      1480.13    5.525267  ( -2.314527  -0.410161  -0.000000)
  13:      1484.21   13.376019  ( -0.313582  -3.643856   0.000000)
  14:      2925.09   62.022377  (  3.699237   6.952555  -0.000000)
  15:      2999.43   66.226468  (  0.000000  -0.000000  -8.137965)
  16:      3006.03   59.747934  (  7.069673  -3.125324   0.000000)
  17:      3487.95   23.427445  (  4.784348   0.733118  -0.000000)

The first frequency considered to be a vibration is 6
The total number of vibrations considered is 12


--------------------------
THERMOCHEMISTRY AT 298.15K
--------------------------

Temperature         ... 298.15 K
Pressure            ... 1.00 atm
Total Mass          ... 32.04 AMU

Throughout the following assumptions are being made:
  (1) The electronic state is orbitally nondegenerate
  (2) There are no thermally accessible electronically excited states
  (3) Hindered rotations indicated by low frequency modes are not
      treated as such but are treated as vibrations and this may
      cause some error
  (4) All equations used are the standard statistical mechanics
      equations for an ideal gas
  (5) All vibrations are strictly harmonic

freq.     428.37  E(vib)   ...       0.18 
freq.    1143.10  E(vib)   ...       0.01 
freq.    1171.33  E(vib)   ...       0.01 
freq.    1215.54  E(vib)   ...       0.01 
freq.    1449.39  E(vib)   ...       0.00 
freq.    1466.79  E(vib)   ...       0.00 
freq.    1480.13  E(vib)   ...       0.00 
freq.    1484.21  E(vib)   ...       0.00 
freq.    2925.09  E(vib)   ...       0.00 
freq.    2999.43  E(vib)   ...       0.00 
freq.    3006.03  E(vib)   ...       0.00 
freq.    3487.95  E(vib)   ...       0.00 

------------
INNER ENERGY
------------

The inner energy is: U= E(el) + E(ZPE) + E(vib) + E(rot) + E(trans)
    E(el)   - is the total energy from the electronic structure calculation
              = E(kin-el) + E(nuc-el) + E(el-el) + E(nuc-nuc)
    E(ZPE)  - the the zero temperature vibrational energy from the frequency calculation
    E(vib)  - the the finite temperature correction to E(ZPE) due to population
              of excited vibrational states
    E(rot)  - is the rotational thermal energy
    E(trans)- is the translational thermal energy

Summary of contributions to the inner energy U:
Electronic energy                ...   -115.71819293 Eh
Zero point energy                ...      0.05070602 Eh      31.82 kcal/mol
Thermal vibrational correction   ...      0.00036067 Eh       0.23 kcal/mol
Thermal rotational correction    ...      0.00141627 Eh       0.89 kcal/mol
Thermal translational correction ...      0.00141627 Eh       0.89 kcal/mol
-----------------------------------------------------------------------
Total thermal energy                   -115.66429369 Eh


Summary of corrections to the electronic energy:
(perhaps to be used in another calculation)
Total thermal correction                  0.00319322 Eh       2.00 kcal/mol
Non-thermal (ZPE) correction              0.05070602 Eh      31.82 kcal/mol
-----------------------------------------------------------------------
Total correction                          0.05389923 Eh      33.82 kcal/mol


--------
ENTHALPY
--------

The enthalpy is H = U + kB*T
                kB is Boltzmann's constant
Total free energy                 ...   -115.66429369 Eh 
Thermal Enthalpy correction       ...      0.00094421 Eh       0.59 kcal/mol
-----------------------------------------------------------------------
Total Enthalpy                    ...   -115.66334948 Eh


Vibrational entropy computed according to the QRRHO of S. Grimme
Chem.Eur.J. 2012 18 9955


-------
ENTROPY
-------

The entropy contributions are T*S = T*(S(el)+S(vib)+S(rot)+S(trans)
     S(el)   - electronic entropy
     S(vib)  - vibrational entropy
     S(rot)  - rotational entropy
     S(trans)- translational entropy
The entropies will be listed as mutliplied by the temperature to get
units of energy

Electronic entropy                ...      0.00000000 Eh      0.00 kcal/mol
Vibrational entropy               ...      0.00050217 Eh      0.32 kcal/mol
Rotational entropy                ...      0.00798294 Eh      5.01 kcal/mol
Translational entropy             ...      0.01725935 Eh     10.83 kcal/mol
-----------------------------------------------------------------------
Final entropy term                ...      0.02574446 Eh     16.15 kcal/mol


CAUTION: The rotational entropy is not quite correctly treated here
         because it includes a symmetry number that is not yet correctly
         implemented in ORCA!
For a nonlinear molecule the correct rotational entropy is:
    S(rot) = R*(ln(qrot/sn)+1.5)
    R    = 8.31441 J/mol/K = 1.987191683e-3 kcal/mol/K
    qrot = 3144.7669404
    sn is the rotational symmetry number. We have assumed 3 here
       if it is different for your molecule then you should correct
       the printed rotational entropy by manually evaluating the equation
       as given above

For convenience we print out the resulting values for sn=1 - 12:
 sn= 1  qrot/sn=    3144.7669 T*S(rot)=     5.66 kcal/mol T*S(tot)=    16.81 kcal/mol
 sn= 2  qrot/sn=    1572.3835 T*S(rot)=     5.25 kcal/mol T*S(tot)=    16.40 kcal/mol
 sn= 3  qrot/sn=    1048.2556 T*S(rot)=     5.01 kcal/mol T*S(tot)=    16.15 kcal/mol
 sn= 4  qrot/sn=     786.1917 T*S(rot)=     4.84 kcal/mol T*S(tot)=    15.98 kcal/mol
 sn= 5  qrot/sn=     628.9534 T*S(rot)=     4.71 kcal/mol T*S(tot)=    15.85 kcal/mol
 sn= 6  qrot/sn=     524.1278 T*S(rot)=     4.60 kcal/mol T*S(tot)=    15.74 kcal/mol
 sn= 7  qrot/sn=     449.2524 T*S(rot)=     4.51 kcal/mol T*S(tot)=    15.65 kcal/mol
 sn= 8  qrot/sn=     393.0959 T*S(rot)=     4.43 kcal/mol T*S(tot)=    15.57 kcal/mol
 sn= 9  qrot/sn=     349.4185 T*S(rot)=     4.36 kcal/mol T*S(tot)=    15.50 kcal/mol
 sn=10  qrot/sn=     314.4767 T*S(rot)=     4.30 kcal/mol T*S(tot)=    15.44 kcal/mol
 sn=11  qrot/sn=     285.8879 T*S(rot)=     4.24 kcal/mol T*S(tot)=    15.39 kcal/mol
 sn=12  qrot/sn=     262.0639 T*S(rot)=     4.19 kcal/mol T*S(tot)=    15.33 kcal/mol


-------------------
GIBBS FREE ENTHALPY
-------------------

The Gibbs free enthalpy is G = H - T*S

Total enthalpy                    ...   -115.66334948 Eh 
Total entropy correction          ...     -0.02574446 Eh    -16.15 kcal/mol
-----------------------------------------------------------------------
Final Gibbs free enthalpy         ...   -115.68909394 Eh

For completeness - the Gibbs free enthalpy minus the electronic energy
G-E(el)                           ...      0.02909899 Eh     18.26 kcal/mol

Actual Hessian File stored as /scratch/kmoore/ORCASCR_1548729393009197598/input.001.hess
------------------------------------------------------------------------------
                         ORCA GEOMETRY RELAXATION STEP
------------------------------------------------------------------------------

Reading the OPT-File                    .... done
Getting information on internals        .... done
Copying old internal coords+grads       .... done
Making the new internal coordinates     .... (new redundants).... done
Validating the new internal coordinates .... (new redundants).... done
Calculating the B-matrix                .... done
Calculating the G,G- and P matrices     .... done
Transforming gradient to internals      .... done
Projecting the internal gradient        .... done
Number of atoms                         ....   6
Number of internal coordinates          ....  15
Current Energy                          ....  -115.718192927 Eh
Current gradient norm                   ....     0.046479597 Eh/bohr
Maximum allowed component of the step   ....  0.300
Current trust radius                    ....  0.300
Evaluating the initial hessian          ....  (read) 
(Reading Exact Hessian)...  
InHessName: /scratch/kmoore/ORCASCR_1548729393009197598/input.hess	The file </scratch/kmoore/ORCASCR_1548729393009197598/input.hess> is opened as a .hess file
done
done
Diagonalizing the Hessian               .... done
Dimension of the hessian                .... 15
Lowest eigenvalues of the non projected Hessian:
 -0.000004882  0.000010157  0.000011062  0.005937008  0.086841425
done
Projecting the Hessian                  .... done
Diagonalizing the Hessian               .... done
Dimension of the hessian                ....  15
Lowest eigenvalues of the Hessian:
  0.005948863  0.086829976  0.087420815  0.140129142  0.191589325
Hessian has   0 negative eigenvalues
Taking P-RFO step
Searching for lambda that maximizes along the lowest mode
TS mode is mode number   0 with eigenvalue   0.00594886 and components:
   1.   -0.00000000
   2.   -0.00000000
   3.    0.00000000
   4.   -0.00923948
   5.    0.00923948
   6.   -0.00000000
   7.   -0.05510056
   8.   -0.00498669
   9.    0.05510056
  10.    0.00498669
  11.    0.00000000
  12.   -0.00000000
  13.   -0.56262270
  14.   -0.56262270
  15.   -0.60051543

Lambda that maximizes along the TS mode:       0.00594886
Searching for lambda that minimizes along all other modes
In cycle   1: lambdaN =  -0.00476293   step =   0.00476293
In cycle   2: lambdaN =  -0.00476571   step =   0.00000277
In cycle   3: lambdaN =  -0.00476571   step =   0.00000000
Lambda that minimizes along all other modes:  -0.00476571
Calculated stepsize too large (   0.9090 >    0.3000). Scaled with    0.3300.
The final length of the internal step   ....       0.3000
Converting the step to cartesian space:
 Initial RMS(Int)=    0.0774596669
Transforming coordinates:
 Iter   0:  RMS(Cart)=    0.0596114330 RMS(Int)=    0.0717603632
 Iter   1:  RMS(Cart)=    0.0024651208 RMS(Int)=    0.0028563346
 Iter   2:  RMS(Cart)=    0.0002403486 RMS(Int)=    0.0003944408
 Iter   3:  RMS(Cart)=    0.0000306621 RMS(Int)=    0.0000339810
 Iter   4:  RMS(Cart)=    0.0000032393 RMS(Int)=    0.0000053430
 Iter   5:  RMS(Cart)=    0.0000004216 RMS(Int)=    0.0000004701
 Iter   6:  RMS(Cart)=    0.0000000440 RMS(Int)=    0.0000000727
done
Storing new coordinates                 .... done

                                .--------------------.
          ----------------------|Geometry convergence|-------------------------
          Item                value                   Tolerance       Converged
          ---------------------------------------------------------------------
          RMS gradient        0.0106690300            0.0001000000      NO
          MAX gradient        0.0245318484            0.0003000000      NO
          RMS step            0.0774596669            0.0020000000      NO
          MAX step            0.0990067207            0.0040000000      NO
          ........................................................
          Max(Bonds)      0.0524      Max(Angles)    5.67
          Max(Dihed)        5.67      Max(Improp)    0.00
          ---------------------------------------------------------------------

The optimization has not yet converged - more geometry cycles are needed


    ---------------------------------------------------------------------------
                         Redundant Internal Coordinates
                            (Angstroem and degrees)

        Definition                    Value    dE/dq     Step     New-Value  comp.(TS mode)
    ----------------------------------------------------------------------------
     1. B(O   1,H   0)                0.9900  0.023785 -0.0083    0.9817   
     2. B(C   2,O   1)                1.3980 -0.024532  0.0072    1.4052   
     3. B(H   3,C   2)                1.1090  0.002017 -0.0019    1.1071   
     4. B(H   4,C   2)                1.1120  0.003817  0.0524    1.1644   
     5. B(H   5,C   2)                1.1120  0.003817 -0.0524    1.0596   
     6. A(H   0,O   1,C   2)          106.00 -0.008811    0.75    106.75   
     7. A(O   1,C   2,H   4)          109.55 -0.003485    5.67    115.22   
     8. A(H   3,C   2,H   4)          108.20  0.005168    5.67    113.87   
     9. A(O   1,C   2,H   5)          109.55 -0.003485   -5.67    103.87   
    10. A(H   3,C   2,H   5)          108.20  0.005168   -5.67    102.53   
    11. A(H   4,C   2,H   5)          112.38  0.010419   -1.52    110.86   
    12. A(O   1,C   2,H   3)          108.90 -0.014401    1.23    110.13   
    13. D(H   4,C   2,O   1,H   0)   -118.16  0.004208    5.67   -112.48          0.56
    14. D(H   5,C   2,O   1,H   0)    118.16 -0.004208    5.67    123.83          0.56
    15. D(H   3,C   2,O   1,H   0)      0.00  0.000000    5.67      5.67          0.60
    ----------------------------------------------------------------------------

         *************************************************************
         *                GEOMETRY OPTIMIZATION CYCLE   2            *
         *************************************************************
---------------------------------
CARTESIAN COORDINATES (ANGSTROEM)
---------------------------------
  H      0.002028   -0.021231   -0.010039
  O      0.980798   -0.003298    0.062984
  C      1.368309    1.345001   -0.017265
  H      0.475356    1.996668    0.043491
  H      2.007360    1.600741   -0.956423
  H      1.903703    1.534635    0.877252

----------------------------
CARTESIAN COORDINATES (A.U.)
----------------------------
  NO LB      ZA    FRAG     MASS         X           Y           Z
   0 H     1.0000    0     1.008    0.003832   -0.040121   -0.018971
   1 O     8.0000    0    15.999    1.853440   -0.006232    0.119023
   2 C     6.0000    0    12.011    2.585729    2.541683   -0.032626
   3 H     1.0000    0     1.008    0.898293    3.773155    0.082185
   4 H     1.0000    0     1.008    3.793361    3.024962   -1.807378
   5 H     1.0000    0     1.008    3.597478    2.900040    1.657766

--------------------------------
INTERNAL COORDINATES (ANGSTROEM)
--------------------------------
 H      0   0   0     0.000000000000     0.00000000     0.00000000
 O      1   0   0     0.981654203945     0.00000000     0.00000000
 C      2   1   0     1.405173588631   106.75293603     0.00000000
 H      3   2   1     1.107125050714   109.82980449     9.98762122
 H      3   2   1     1.164392101406   114.08930809   244.70009976
 H      3   2   1     1.059607900355   105.23943764   122.33027987

---------------------------
INTERNAL COORDINATES (A.U.)
---------------------------
 H      0   0   0     0.000000000000     0.00000000     0.00000000
 O      1   0   0     1.855057603668     0.00000000     0.00000000
 C      2   1   0     2.655393253132   106.75293603     0.00000000
 H      3   2   1     2.092163141853   109.82980449     9.98762122
 H      3   2   1     2.200382184158   114.08930809   244.70009976
 H      3   2   1     2.002368741010   105.23943764   122.33027987


Diagonalization of the overlap matrix:
Smallest eigenvalue                        ... 1.597e-02
Time for diagonalization                   ...    0.001 sec
Threshold for overlap eigenvalues          ... 1.000e-08
Number of eigenvalues below threshold      ... 0
Time for construction of square roots      ...    0.000 sec
Total time needed                          ...    0.001 sec

-------------------
DFT GRID GENERATION
-------------------

General Integration Accuracy     IntAcc      ...  4.340
Radial Grid Type                 RadialGrid  ... Gauss-Chebyshev
Angular Grid (max. acc.)         AngularGrid ... Lebedev-110
Angular grid pruning method      GridPruning ... 3 (G Style)
Weight generation scheme         WeightScheme... Becke
Basis function cutoff            BFCut       ...    1.0000e-11
Integration weight cutoff        WCut        ...    1.0000e-14
Grids for H and He will be reduced by one unit

# of grid points (after initial pruning)     ...   6548 (   0.0 sec)
# of grid points (after weights+screening)   ...   6374 (   0.0 sec)
nearest neighbour list constructed           ...    0.0 sec
Grid point re-assignment to atoms done       ...    0.0 sec
Grid point division into batches done        ...    0.0 sec
Reduced shell lists constructed in    0.0 sec

Total number of grid points                  ...     6374
Total number of batches                      ...      102
Average number of points per batch           ...       62
Average number of grid points per atom       ...     1062
Average number of shells per batch           ...    22.64 (94.34%)
Average number of basis functions per batch  ...    44.93 (93.61%)
Average number of large shells per batch     ...    20.95 (92.54%)
Average number of large basis fcns per batch ...    41.22 (91.75%)
Maximum spatial batch extension              ...  19.47, 20.65, 23.48 au
Average spatial batch extension              ...   4.90,  5.66,  5.42 au

Time for grid setup =    0.051 sec

--------------
SCF ITERATIONS
--------------
ITER       Energy         Delta-E        Max-DP      RMS-DP      [F,P]     Damp
               ***  Starting incremental Fock matrix formation  ***
  0   -115.7114786309   0.000000000000 0.01013428  0.00060042  0.0218202 0.7000
                      *** Initiating the SOSCF procedure ***
                      *** Re-Reading the Fockian *** 
                      *** Removing any level shift *** 
ITER      Energy       Delta-E        Grad      Rot      Max-DP    RMS-DP
  1   -115.71235421  -0.0008755826  0.003180  0.003180  0.029983  0.001789
               *** Restarting incremental Fock matrix formation ***
  2   -115.71460755  -0.0022533365  0.001932  0.005515  0.006666  0.000474
  3   -115.71467477  -0.0000672222  0.000484  0.000866  0.001422  0.000102
  4   -115.71467914  -0.0000043703  0.000113  0.000202  0.000297  0.000026
  5   -115.71467938  -0.0000002398  0.000094  0.000068  0.000179  0.000012
  6   -115.71467948  -0.0000000997  0.000032  0.000047  0.000089  0.000006
  7   -115.71467950  -0.0000000178  0.000013  0.000015  0.000034  0.000002
  8   -115.71467950  -0.0000000016  0.000007  0.000010  0.000013  0.000001
                 **** Energy Check signals convergence ****
              ***Rediagonalizing the Fockian in SOSCF/NRSCF***

               *****************************************************
               *                     SUCCESS                       *
               *           SCF CONVERGED AFTER   9 CYCLES          *
               *****************************************************

Setting up the final grid:

General Integration Accuracy     IntAcc      ...  4.670
Radial Grid Type                 RadialGrid  ... Gauss-Chebyshev
Angular Grid (max. acc.)         AngularGrid ... Lebedev-302
Angular grid pruning method      GridPruning ... 3 (G Style)
Weight generation scheme         WeightScheme... Becke
Basis function cutoff            BFCut       ...    1.0000e-11
Integration weight cutoff        WCut        ...    1.0000e-14
Grids for H and He will be reduced by one unit

# of grid points (after initial pruning)     ...  26000 (   0.0 sec)
# of grid points (after weights+screening)   ...  25155 (   0.0 sec)
nearest neighbour list constructed           ...    0.0 sec
Grid point re-assignment to atoms done       ...    0.0 sec
Grid point division into batches done        ...    0.1 sec
Reduced shell lists constructed in    0.2 sec

Total number of grid points                  ...    25155
Total number of batches                      ...      396
Average number of points per batch           ...       63
Average number of grid points per atom       ...     4192
Average number of shells per batch           ...    21.12 (87.98%)
Average number of basis functions per batch  ...    41.58 (86.62%)
Average number of large shells per batch     ...    19.14 (90.65%)
Average number of large basis fcns per batch ...    37.45 (90.08%)
Maximum spatial batch extension              ...  26.06, 24.43, 21.89 au
Average spatial batch extension              ...   3.19,  3.28,  3.35 au

Final grid set up in    0.2 sec
Final integration                            ... done (   0.2 sec)
Change in XC energy                          ...    -0.000055657
Integrated number of electrons               ...    17.999995117
Previous integrated no of electrons          ...    17.999327003
Total Energy       :         -115.71473516 Eh           -3148.75802 eV
  Last Energy change         ...   -1.0861e-09  Tolerance :   1.0000e-08
  Last MAX-Density change    ...    2.4180e-06  Tolerance :   1.0000e-07
             **** THE GBW FILE WAS UPDATED (/scratch/kmoore/ORCASCR_1548729393009197598/input.gbw) ****
             **** DENSITY FILE WAS UPDATED (/scratch/kmoore/ORCASCR_1548729393009197598/input.scfp.tmp) ****
             **** ENERGY FILE WAS UPDATED (/scratch/kmoore/ORCASCR_1548729393009197598/input.en.tmp) ****
Total SCF time: 0 days 0 hours 0 min 4 sec 

-------------------------   --------------------
FINAL SINGLE POINT ENERGY      -115.714735159478
-------------------------   --------------------

------------------------------------------------------------------------------
                         ORCA SCF GRADIENT CALCULATION
------------------------------------------------------------------------------

Gradient of the Kohn-Sham DFT energy:
Kohn-Sham wavefunction type      ... RKS
Hartree-Fock exchange scaling    ...    0.200
Number of operators              ...    1
Number of atoms                  ...    6
Basis set dimensions             ...   48
Integral neglect threshold       ... 2.5e-11
Integral primitive cutoff        ... 2.5e-12

Nuclear repulsion gradient       ... done
One Electron Gradient            ... done
Pre-screening matrix             ... done
Starting the two electron gradient:
Two electron gradient done
Exchange-correlation gradient    ... done

------------------
CARTESIAN GRADIENT
------------------

   1   H   :   -0.016387302    0.003034183    0.001214785
   2   O   :    0.020098493    0.014506796    0.008092930
   3   C   :    0.007876289   -0.006625319    0.028506391
   4   H   :   -0.004042567   -0.004958161    0.007651793
   5   H   :    0.017947277    0.007270877   -0.024347292
   6   H   :   -0.025492189   -0.013228376   -0.021118607

Difference to translation invariance:
           :    0.0000000000    0.0000000000   -0.0000000000

Norm of the cartesian gradient     ...    0.0649287046
RMS gradient                       ...    0.0153038424
MAX gradient                       ...    0.0285063908

-------
TIMINGS
-------

Total SCF gradient time            ...        1.154 sec

One electron gradient       ....       0.009 sec  (  0.8%)
Prescreening matrices       ....       0.030 sec  (  2.6%)
Two electron gradient       ....       0.448 sec  ( 38.8%)
XC gradient                 ....       0.534 sec  ( 46.3%)
------------------------------------------------------------------------------
                         ORCA GEOMETRY RELAXATION STEP
------------------------------------------------------------------------------

Reading the OPT-File                    .... done
Getting information on internals        .... done
Copying old internal coords+grads       .... done
Making the new internal coordinates     .... (new redundants).... done
Validating the new internal coordinates .... (new redundants).... done
Calculating the B-matrix                .... done
Calculating the G,G- and P matrices     .... done
Transforming gradient to internals      .... done
Projecting the internal gradient        .... done
Number of atoms                         ....   6
Number of internal coordinates          ....  15
Current Energy                          ....  -115.714735159 Eh
Current gradient norm                   ....     0.064928705 Eh/bohr
Maximum allowed component of the step   ....  0.300
Current trust radius                    ....  0.300
Updating the Hessian (Bofill)          .... Diagonalizing the Hessian               .... done
Dimension of the hessian                ....  15
Lowest eigenvalues of the Hessian:
 -0.000111046  0.086106935  0.087436840  0.139778689  0.191326439
Hessian has   1 negative eigenvalues
Taking P-RFO step
Searching for lambda that maximizes along the lowest mode
TS mode is mode number   0 with eigenvalue  -0.00011105 and components:
   1.    0.00274577
   2.    0.00005636
   3.    0.00211987
   4.    0.05020265
   5.    0.02673978
   6.    0.00791427
   7.    0.06200290
   8.    0.01099084
   9.   -0.05776249
  10.   -0.02040106
  11.   -0.01355663
  12.   -0.00342383
  13.    0.54080799
  14.    0.56400282
  15.    0.61498306

Lambda that maximizes along the TS mode:       0.00000428
Searching for lambda that minimizes along all other modes
In cycle   1: lambdaN =  -0.01121056   step =   0.01121056
In cycle   2: lambdaN =  -0.01124435   step =   0.00003379
In cycle   3: lambdaN =  -0.01124435   step =   0.00000000
Lambda that minimizes along all other modes:  -0.01124435
The final length of the internal step   ....       0.2864
Converting the step to cartesian space:
 Initial RMS(Int)=    0.0739481557
Transforming coordinates:
 Iter   0:  RMS(Cart)=    0.0726090128 RMS(Int)=    0.0738506751
 Iter   1:  RMS(Cart)=    0.0032257489 RMS(Int)=    0.0040115097
 Iter   2:  RMS(Cart)=    0.0002483159 RMS(Int)=    0.0003034154
 Iter   3:  RMS(Cart)=    0.0000216894 RMS(Int)=    0.0000286906
 Iter   4:  RMS(Cart)=    0.0000018712 RMS(Int)=    0.0000023540
 Iter   5:  RMS(Cart)=    0.0000001519 RMS(Int)=    0.0000002004
 Iter   6:  RMS(Cart)=    0.0000000132 RMS(Int)=    0.0000000171
done
Storing new coordinates                 .... done

                                .--------------------.
          ----------------------|Geometry convergence|-------------------------
          Item                value                   Tolerance       Converged
          ---------------------------------------------------------------------
          Energy change       0.0034577671            0.0000050000      NO
          RMS gradient        0.0150423744            0.0001000000      NO
          MAX gradient        0.0330747365            0.0003000000      NO
          RMS step            0.0739481557            0.0020000000      NO
          MAX step            0.1743263429            0.0040000000      NO
          ........................................................
          Max(Bonds)      0.0508      Max(Angles)    3.69
          Max(Dihed)        9.99      Max(Improp)    0.00
          ---------------------------------------------------------------------

The optimization has not yet converged - more geometry cycles are needed


    ---------------------------------------------------------------------------
                         Redundant Internal Coordinates
                            (Angstroem and degrees)

        Definition                    Value    dE/dq     Step     New-Value  comp.(TS mode)
    ----------------------------------------------------------------------------
     1. B(O   1,H   0)                0.9817  0.016165 -0.0186    0.9631   
     2. B(C   2,O   1)                1.4052 -0.017307  0.0136    1.4188   
     3. B(H   3,C   2)                1.1071  0.000772 -0.0027    1.1045   
     4. B(H   4,C   2)                1.1644  0.031078 -0.0465    1.1179   
     5. B(H   5,C   2)                1.0596 -0.033075  0.0508    1.1104   
     6. A(H   0,O   1,C   2)          106.75 -0.005739    0.91    107.66   
     7. A(O   1,C   2,H   4)          114.09  0.010138   -2.15    111.94   
     8. A(H   3,C   2,H   4)          110.96  0.007804   -2.65    108.30   
     9. A(O   1,C   2,H   5)          105.24 -0.016340    3.69    108.93   
    10. A(H   3,C   2,H   5)          104.82 -0.001713    2.14    106.96   
    11. A(H   4,C   2,H   5)          111.36  0.008506   -3.50    107.87   
    12. A(O   1,C   2,H   3)          109.83 -0.010622    2.61    112.44   
    13. D(H   4,C   2,O   1,H   0)   -115.30 -0.002990    6.63   -108.67          0.54
    14. D(H   5,C   2,O   1,H   0)    122.33 -0.008311    9.99    132.32          0.56
    15. D(H   3,C   2,O   1,H   0)      9.99  0.006565    3.74     13.72          0.61
    ----------------------------------------------------------------------------

         *************************************************************
         *                GEOMETRY OPTIMIZATION CYCLE   3            *
         *************************************************************
---------------------------------
CARTESIAN COORDINATES (ANGSTROEM)
---------------------------------
  H      0.010864   -0.057685   -0.082150
  O      0.959725   -0.016661    0.077566
  C      1.349983    1.345448    0.005182
  H      0.487204    2.034419    0.032480
  H      1.944275    1.561635   -0.916603
  H      1.985503    1.585359    0.883525

----------------------------
CARTESIAN COORDINATES (A.U.)
----------------------------
  NO LB      ZA    FRAG     MASS         X           Y           Z
   0 H     1.0000    0     1.008    0.020530   -0.109009   -0.155241
   1 O     8.0000    0    15.999    1.813617   -0.031484    0.146579
   2 C     6.0000    0    12.011    2.551099    2.542528    0.009792
   3 H     1.0000    0     1.008    0.920683    3.844495    0.061378
   4 H     1.0000    0     1.008    3.674148    2.951063   -1.732128
   5 H     1.0000    0     1.008    3.752058    2.995893    1.669620

--------------------------------
INTERNAL COORDINATES (ANGSTROEM)
--------------------------------
 H      0   0   0     0.000000000000     0.00000000     0.00000000
 O      1   0   0     0.963082868139     0.00000000     0.00000000
 C      2   1   0     1.418760579005   107.66452043     0.00000000
 H      3   2   1     1.104452228816   112.50489047    13.73302250
 H      3   2   1     1.117857793139   111.96128102   251.40527463
 H      3   2   1     1.110373465774   108.93606556   132.23452183

---------------------------
INTERNAL COORDINATES (A.U.)
---------------------------
 H      0   0   0     0.000000000000     0.00000000     0.00000000
 O      1   0   0     1.819962865055     0.00000000     0.00000000
 C      2   1   0     2.681068943922   107.66452043     0.00000000
 H      3   2   1     2.087112240461   112.50489047    13.73302250
 H      3   2   1     2.112445085702   111.96128102   251.40527463
 H      3   2   1     2.098301756685   108.93606556   132.23452183


Diagonalization of the overlap matrix:
Smallest eigenvalue                        ... 1.691e-02
Time for diagonalization                   ...    0.001 sec
Threshold for overlap eigenvalues          ... 1.000e-08
Number of eigenvalues below threshold      ... 0
Time for construction of square roots      ...    0.000 sec
Total time needed                          ...    0.002 sec

-------------------
DFT GRID GENERATION
-------------------

General Integration Accuracy     IntAcc      ...  4.340
Radial Grid Type                 RadialGrid  ... Gauss-Chebyshev
Angular Grid (max. acc.)         AngularGrid ... Lebedev-110
Angular grid pruning method      GridPruning ... 3 (G Style)
Weight generation scheme         WeightScheme... Becke
Basis function cutoff            BFCut       ...    1.0000e-11
Integration weight cutoff        WCut        ...    1.0000e-14
Grids for H and He will be reduced by one unit

# of grid points (after initial pruning)     ...   6548 (   0.0 sec)
# of grid points (after weights+screening)   ...   6380 (   0.0 sec)
nearest neighbour list constructed           ...    0.0 sec
Grid point re-assignment to atoms done       ...    0.0 sec
Grid point division into batches done        ...    0.0 sec
Reduced shell lists constructed in    0.0 sec

Total number of grid points                  ...     6380
Total number of batches                      ...      101
Average number of points per batch           ...       63
Average number of grid points per atom       ...     1063
Average number of shells per batch           ...    22.68 (94.49%)
Average number of basis functions per batch  ...    45.05 (93.85%)
Average number of large shells per batch     ...    20.92 (92.26%)
Average number of large basis fcns per batch ...    41.06 (91.14%)
Maximum spatial batch extension              ...  19.45, 20.76, 23.14 au
Average spatial batch extension              ...   4.83,  5.74,  5.82 au

Time for grid setup =    0.051 sec

--------------
SCF ITERATIONS
--------------
ITER       Energy         Delta-E        Max-DP      RMS-DP      [F,P]     Damp
               ***  Starting incremental Fock matrix formation  ***
  0   -115.7180091999   0.000000000000 0.01256579  0.00058480  0.0268807 0.7000
                      *** Initiating the SOSCF procedure ***
                      *** Re-Reading the Fockian *** 
                      *** Removing any level shift *** 
ITER      Energy       Delta-E        Grad      Rot      Max-DP    RMS-DP
  1   -115.71877266  -0.0007634614  0.002302  0.002302  0.037094  0.001686
               *** Restarting incremental Fock matrix formation ***
  2   -115.72069679  -0.0019241275  0.001373  0.004363  0.006438  0.000382
  3   -115.72074103  -0.0000442440  0.000777  0.001618  0.001808  0.000153
  4   -115.72074447  -0.0000034403  0.000586  0.000522  0.000992  0.000074
  5   -115.72074850  -0.0000040280  0.000105  0.000123  0.000256  0.000019
  6   -115.72074863  -0.0000001265  0.000066  0.000059  0.000131  0.000009
  7   -115.72074868  -0.0000000570  0.000018  0.000022  0.000062  0.000003
  8   -115.72074869  -0.0000000046  0.000006  0.000009  0.000020  0.000001
                 **** Energy Check signals convergence ****
              ***Rediagonalizing the Fockian in SOSCF/NRSCF***

               *****************************************************
               *                     SUCCESS                       *
               *           SCF CONVERGED AFTER   9 CYCLES          *
               *****************************************************

Setting up the final grid:

General Integration Accuracy     IntAcc      ...  4.670
Radial Grid Type                 RadialGrid  ... Gauss-Chebyshev
Angular Grid (max. acc.)         AngularGrid ... Lebedev-302
Angular grid pruning method      GridPruning ... 3 (G Style)
Weight generation scheme         WeightScheme... Becke
Basis function cutoff            BFCut       ...    1.0000e-11
Integration weight cutoff        WCut        ...    1.0000e-14
Grids for H and He will be reduced by one unit

# of grid points (after initial pruning)     ...  26000 (   0.0 sec)
# of grid points (after weights+screening)   ...  25167 (   0.0 sec)
nearest neighbour list constructed           ...    0.0 sec
Grid point re-assignment to atoms done       ...    0.0 sec
Grid point division into batches done        ...    0.1 sec
Reduced shell lists constructed in    0.2 sec

Total number of grid points                  ...    25167
Total number of batches                      ...      397
Average number of points per batch           ...       63
Average number of grid points per atom       ...     4194
Average number of shells per batch           ...    21.15 (88.12%)
Average number of basis functions per batch  ...    41.64 (86.75%)
Average number of large shells per batch     ...    19.03 (90.00%)
Average number of large basis fcns per batch ...    37.17 (89.27%)
Maximum spatial batch extension              ...  21.91, 24.43, 22.87 au
Average spatial batch extension              ...   3.15,  3.30,  3.29 au

Final grid set up in    0.3 sec
Final integration                            ... done (   0.2 sec)
Change in XC energy                          ...    -0.000010868
Integrated number of electrons               ...    17.999990400
Previous integrated no of electrons          ...    18.000359372
Total Energy       :         -115.72075956 Eh           -3148.92196 eV
  Last Energy change         ...   -1.2654e-09  Tolerance :   1.0000e-08
  Last MAX-Density change    ...    1.2503e-06  Tolerance :   1.0000e-07
             **** THE GBW FILE WAS UPDATED (/scratch/kmoore/ORCASCR_1548729393009197598/input.gbw) ****
             **** DENSITY FILE WAS UPDATED (/scratch/kmoore/ORCASCR_1548729393009197598/input.scfp.tmp) ****
[...]
                      *****************************

  NA   - Mulliken gross atomic population
  ZA   - Total nuclear charge
  QA   - Mulliken gross atomic charge
  VA   - Mayer's total valence
  BVA  - Mayer's bonded valence
  FA   - Mayer's free valence

  ATOM       NA         ZA         QA         VA         BVA        FA
  0 H      0.8626     1.0000     0.1374     1.0397     1.0397    -0.0000
  1 O      8.2792     8.0000    -0.2792     2.1321     2.1321    -0.0000
  2 C      5.9073     6.0000     0.0927     4.0324     4.0324    -0.0000
  3 H      0.9894     1.0000     0.0106     0.9676     0.9676    -0.0000
  4 H      0.9808     1.0000     0.0192     0.9701     0.9701    -0.0000
  5 H      0.9807     1.0000     0.0193     0.9701     0.9701     0.0000

  Mayer bond orders larger than 0.1
B(  0-H ,  1-O ) :   1.0142 B(  1-O ,  2-C ) :   1.0894 B(  2-C ,  3-H ) :   0.9784 
B(  2-C ,  4-H ) :   0.9735 B(  2-C ,  5-H ) :   0.9735 

-------
TIMINGS
-------

Total SCF time: 0 days 0 hours 0 min 2 sec 

Total time                  ....       2.341 sec
Sum of individual times     ....       2.324 sec  ( 99.3%)

Fock matrix formation       ....       2.018 sec  ( 86.2%)
  XC integration            ....       0.464 sec  ( 23.0% of F)
    Basis function eval.    ....       0.307 sec  ( 66.1% of XC)
    Density eval.           ....       0.037 sec  (  8.1% of XC)
    XC-Functional eval.     ....       0.051 sec  ( 10.9% of XC)
    XC-Potential eval.      ....       0.059 sec  ( 12.7% of XC)
Diagonalization             ....       0.000 sec  (  0.0%)
Density matrix formation    ....       0.000 sec  (  0.0%)
Population analysis         ....       0.001 sec  (  0.0%)
Initial guess               ....       0.000 sec  (  0.0%)
Orbital Transformation      ....       0.000 sec  (  0.0%)
Orbital Orthonormalization  ....       0.000 sec  (  0.0%)
DIIS solution               ....       0.000 sec  (  0.0%)
SOSCF solution              ....       0.002 sec  (  0.1%)
Grid generation             ....       0.302 sec  ( 12.9%)

-------------------------   --------------------
FINAL SINGLE POINT ENERGY      -115.720675888457
-------------------------   --------------------

                                *** OPTIMIZATION RUN DONE ***

                            ***************************************
                            *     ORCA property calculations      *
                            ***************************************

                                    ---------------------
                                    Active property flags
                                    ---------------------
   (+) Dipole Moment


------------------------------------------------------------------------------
                       ORCA ELECTRIC PROPERTIES CALCULATION
------------------------------------------------------------------------------

Dipole Moment Calculation                       ... on
Quadrupole Moment Calculation                   ... off
Polarizability Calculation                      ... off
GBWName                                         ... /scratch/kmoore/ORCASCR_1548729393009197598/input.gbw
Electron density file                           ... /scratch/kmoore/ORCASCR_1548729393009197598/input.scfp.tmp
The origin for moment calculation is the CENTER OF MASS  = ( 2.132678,  1.239433 -0.000112)

-------------
DIPOLE MOMENT
-------------
                                X             Y             Z
Electronic contribution:     -0.38183      -1.88418      -0.00017
Nuclear contribution   :     -0.09177       2.33790       0.00034
                        -----------------------------------------
Total Dipole Moment    :     -0.47360       0.45372       0.00017
                        -----------------------------------------
Magnitude (a.u.)       :      0.65587
Magnitude (Debye)      :      1.66708


-------------------------------------------------------------------------------
                               ORCA SCF HESSIAN
-------------------------------------------------------------------------------

Hessian of the Kohn-Sham DFT energy:
Kohn-Sham wavefunction type                      ... RKS
Hartree-Fock exchange scaling                    ...    0.200
Number of operators                              ...    1
Number of atoms                                  ...    6
Basis set dimensions                             ...   48
Integral neglect threshold                       ... 2.5e-11
Integral primitive cutoff                        ... 2.5e-12

Setting up DFT Hessian calculations              ... 
Electron density on the grid                     ... found on disk
Electron density on the final grid               ... found on disk
Building xc-kernel on the grid                   ... done   (      0.0 sec)
Building xc-kernel on the final grid             ... done   (      0.1 sec)
                                                     done   (      0.1 sec)

Nuclear repulsion Hessian                        ... done   (      0.0 sec)

----------------------------------------------
Forming right-hand sides of CP-SCF equations     ...
----------------------------------------------
One electron integral derivatives                ... done   (      0.1 sec)
Transforming the overlap derivative matrices     ... done   (      0.0 sec)
Making the Q(x) pseudodensities                  ... done   (      0.0 sec)
Adding the E*S(x)*S(y) terms to the Hessian      ... done   (      0.0 sec)
Calculating energy weighted overlap derivatives  ... done   (      0.0 sec)
Two electron integral derivatives                ... done   (      0.7 sec)
Exchange-correlation integral derivatives        ... done   (      2.4 sec)
tr(F(y)Q(x)) contribution to the Hessian         ... done   (      0.0 sec)
Response fock operator R(S(x))                   ... done   (      0.4 sec)
XC Response fock operator R(S(x))                ... done   (      0.9 sec)
tr(F(y)S(x)) contribution to the Hessian         ... done   (      0.0 sec)
Transforming and finalizing RHSs                 ... done   (      0.0 sec)

----------------------------------------------
Solving the CP-SCF equations                     ...
----------------------------------------------
     CP-SCF ITERATION   0: 
     CP-SCF ITERATION   1:      0.000884211497
     CP-SCF ITERATION   2:      0.000039068671
     CP-SCF ITERATION   3:      0.000002454792
     CP-SCF ITERATION   4:      0.000000094738
     CP-SCF ITERATION   5:      0.000000009030

                                                 ... done   (      4.7 sec)
Forming perturbed density Hessian contributions  ... done   (      0.0 sec)
Making the perturbed densities                   ... done   (      0.0 sec)
2nd integral derivative contribs                 ... done   (      2.8 sec)
Exchange-correlation Hessian                     ... done   (      3.1 sec)
Dipol derivatives                                ... done   (      0.1 sec)

Total SCF Hessian time: 0 days 0 hours 0 min 15 sec 

Writing the Hessian file to the disk             ... done


-----------------------
VIBRATIONAL FREQUENCIES
-----------------------

   0:         0.00 cm**-1
   1:         0.00 cm**-1
   2:         0.00 cm**-1
   3:         0.00 cm**-1
   4:         0.00 cm**-1
   5:         0.00 cm**-1
   6:      -342.77 cm**-1 ***imaginary mode***
   7:      1055.57 cm**-1
   8:      1077.27 cm**-1
   9:      1174.50 cm**-1
  10:      1358.18 cm**-1
  11:      1456.49 cm**-1
  12:      1467.68 cm**-1
  13:      1489.50 cm**-1
  14:      2987.08 cm**-1
  15:      3040.35 cm**-1
  16:      3062.01 cm**-1
  17:      3823.13 cm**-1


------------
NORMAL MODES
------------

These modes are the cartesian displacements weighted by the diagonal matrix
M(i,i)=1/sqrt(m[i]) where m[i] is the mass of the displaced atom
Thus, these vectors are normalized but *not* orthogonal

                  0          1          2          3          4          5    
      0       0.000000   0.000000   0.000000   0.000000   0.000000   0.000000
      1       0.000000   0.000000   0.000000   0.000000   0.000000   0.000000
      2       0.000000   0.000000   0.000000   0.000000   0.000000   0.000000
      3       0.000000   0.000000   0.000000   0.000000   0.000000   0.000000
      4       0.000000   0.000000   0.000000   0.000000   0.000000   0.000000
      5       0.000000   0.000000   0.000000   0.000000   0.000000   0.000000
      6       0.000000   0.000000   0.000000   0.000000   0.000000   0.000000
      7       0.000000   0.000000   0.000000   0.000000   0.000000   0.000000
      8       0.000000   0.000000   0.000000   0.000000   0.000000   0.000000
      9       0.000000   0.000000   0.000000   0.000000   0.000000   0.000000
     10       0.000000   0.000000   0.000000   0.000000   0.000000   0.000000
     11       0.000000   0.000000   0.000000   0.000000   0.000000   0.000000
     12       0.000000   0.000000   0.000000   0.000000   0.000000   0.000000
     13       0.000000   0.000000   0.000000   0.000000   0.000000   0.000000
     14       0.000000   0.000000   0.000000   0.000000   0.000000   0.000000
     15       0.000000   0.000000   0.000000   0.000000   0.000000   0.000000
     16       0.000000   0.000000   0.000000   0.000000   0.000000   0.000000
     17       0.000000   0.000000   0.000000   0.000000   0.000000   0.000000
                  6          7          8          9         10         11    
      0      -0.000013   0.093276  -0.028868  -0.000015  -0.027646   0.000021
      1       0.000099  -0.607002  -0.493423  -0.000364  -0.850529   0.000227
      2      -0.884475   0.000178  -0.000038   0.140179  -0.000277   0.016396
      3       0.000020   0.050114  -0.025633  -0.000022  -0.072361   0.000022
      4       0.000010   0.164574  -0.168849  -0.000033   0.033615  -0.000001
      5       0.071838  -0.000006  -0.000045   0.050633   0.000008   0.009301
      6      -0.000035  -0.112889  -0.018775   0.000018   0.123281   0.000036
      7      -0.000008  -0.127193   0.242712   0.000078   0.007343   0.000073
      8      -0.020517   0.000005   0.000083  -0.137203   0.000041   0.055224
      9       0.000421   0.260919   0.318047  -0.000031  -0.103610  -0.001544
     10      -0.000081   0.347044   0.658522  -0.001024  -0.280746  -0.000157
     11       0.268093   0.000072   0.000134   0.298694  -0.000520  -0.712652
     12      -0.197503   0.098174   0.170943   0.287788  -0.095160  -0.261546
     13       0.107984  -0.417762  -0.188225   0.560510   0.254786   0.415193
     14      -0.139337   0.058055   0.038913   0.196027  -0.091001  -0.053928
     15       0.197190   0.097376   0.170441  -0.287609  -0.094047   0.262287
     16      -0.108057  -0.418808  -0.188969  -0.559520   0.255443  -0.416111
     17      -0.140016  -0.058275  -0.039283   0.196321   0.091194  -0.055472
                 12         13         14         15         16         17    
      0       0.004871  -0.010506   0.004620   0.000065   0.019288   0.996685
      1      -0.024095  -0.075997  -0.002787  -0.000004  -0.004884   0.047049
      2       0.000012  -0.000027  -0.000033  -0.009278   0.000068  -0.000026
      3      -0.002114  -0.016266   0.000054  -0.000007  -0.002029  -0.062797
      4       0.017090  -0.001473   0.002492  -0.000000   0.001199  -0.005334
      5      -0.000007   0.000008   0.000006   0.001480  -0.000008   0.000002
      6       0.018227  -0.051725   0.020596   0.000254   0.088124  -0.001981
      7       0.104801  -0.013693   0.041104  -0.000252  -0.032733   0.002713
      8      -0.000020   0.000048  -0.000292  -0.094136   0.000343  -0.000000
      9      -0.448101  -0.135719   0.409516  -0.004888  -0.680371   0.015229
     10      -0.525749  -0.158229  -0.312115   0.003715   0.518586  -0.000929
     11       0.001145   0.000451  -0.000849  -0.023401   0.001377  -0.000012
     12       0.130030   0.511029  -0.330794  -0.399367  -0.175918   0.004186
     13      -0.485590   0.209873  -0.107894  -0.123834  -0.070905   0.003114
     14      -0.056322   0.410560   0.497946   0.565823   0.301493  -0.008197
     15       0.129564   0.509715  -0.329624   0.401276  -0.180848   0.004221
     16      -0.484593   0.210896  -0.106530   0.123127  -0.071798   0.003095
     17       0.055511  -0.411684  -0.493675   0.565064  -0.306902   0.008211


-----------
IR SPECTRUM
-----------

 Mode    freq (cm**-1)   T**2         TX         TY         TZ
-------------------------------------------------------------------
   7:      1055.57   99.572786  ( -2.786368  -9.581698   0.002446)
   8:      1077.27   16.689896  (  2.027457   3.546733  -0.001236)
   9:      1174.50    0.284178  ( -0.000128  -0.002711   0.533077)
  10:      1358.18   24.826047  ( -0.512217  -4.956175  -0.002302)
  11:      1456.49    1.349608  (  0.000684   0.002429  -1.161724)
  12:      1467.68   10.872838  (  2.283437   2.378813  -0.000382)
  13:      1489.50    3.867503  (  0.743636  -1.820579  -0.001103)
  14:      2987.08   56.534035  (  3.233958   6.787835  -0.029107)
  15:      3040.35   64.678387  (  0.018340  -0.026998  -8.042221)
  16:      3062.01   53.802996  (  6.914076  -2.449049   0.026633)
  17:      3823.13   29.991908  (  5.293025   1.405629  -0.001653)

The first frequency considered to be a vibration is 7
The total number of vibrations considered is 11


--------------------------
THERMOCHEMISTRY AT 298.15K
--------------------------

Temperature         ... 298.15 K
Pressure            ... 1.00 atm
Total Mass          ... 32.04 AMU

Throughout the following assumptions are being made:
  (1) The electronic state is orbitally nondegenerate
  (2) There are no thermally accessible electronically excited states
  (3) Hindered rotations indicated by low frequency modes are not
      treated as such but are treated as vibrations and this may
      cause some error
  (4) All equations used are the standard statistical mechanics
      equations for an ideal gas
  (5) All vibrations are strictly harmonic

freq.    1055.57  E(vib)   ...       0.02 
freq.    1077.27  E(vib)   ...       0.02 
freq.    1174.50  E(vib)   ...       0.01 
freq.    1358.18  E(vib)   ...       0.01 
freq.    1456.49  E(vib)   ...       0.00 
freq.    1467.68  E(vib)   ...       0.00 
freq.    1489.50  E(vib)   ...       0.00 
freq.    2987.08  E(vib)   ...       0.00 
freq.    3040.35  E(vib)   ...       0.00 
freq.    3062.01  E(vib)   ...       0.00 
freq.    3823.13  E(vib)   ...       0.00 

------------
INNER ENERGY
------------

The inner energy is: U= E(el) + E(ZPE) + E(vib) + E(rot) + E(trans)
    E(el)   - is the total energy from the electronic structure calculation
              = E(kin-el) + E(nuc-el) + E(el-el) + E(nuc-nuc)
    E(ZPE)  - the the zero temperature vibrational energy from the frequency calculation
    E(vib)  - the the finite temperature correction to E(ZPE) due to population
              of excited vibrational states
    E(rot)  - is the rotational thermal energy
    E(trans)- is the translational thermal energy

Summary of contributions to the inner energy U:
Electronic energy                ...   -115.72067589 Eh
Zero point energy                ...      0.05010095 Eh      31.44 kcal/mol
Thermal vibrational correction   ...      0.00010101 Eh       0.06 kcal/mol
Thermal rotational correction    ...      0.00141627 Eh       0.89 kcal/mol
Thermal translational correction ...      0.00141627 Eh       0.89 kcal/mol
-----------------------------------------------------------------------
Total thermal energy                   -115.66764139 Eh


Summary of corrections to the electronic energy:
(perhaps to be used in another calculation)
Total thermal correction                  0.00293355 Eh       1.84 kcal/mol
Non-thermal (ZPE) correction              0.05010095 Eh      31.44 kcal/mol
-----------------------------------------------------------------------
Total correction                          0.05303450 Eh      33.28 kcal/mol


--------
ENTHALPY
--------

The enthalpy is H = U + kB*T
                kB is Boltzmann's constant
Total free energy                 ...   -115.66764139 Eh 
Thermal Enthalpy correction       ...      0.00094421 Eh       0.59 kcal/mol
-----------------------------------------------------------------------
Total Enthalpy                    ...   -115.66669718 Eh


Vibrational entropy computed according to the QRRHO of S. Grimme
Chem.Eur.J. 2012 18 9955


-------
ENTROPY
-------

The entropy contributions are T*S = T*(S(el)+S(vib)+S(rot)+S(trans)
     S(el)   - electronic entropy
     S(vib)  - vibrational entropy
     S(rot)  - rotational entropy
     S(trans)- translational entropy
The entropies will be listed as mutliplied by the temperature to get
units of energy

Electronic entropy                ...      0.00000000 Eh      0.00 kcal/mol
Vibrational entropy               ...      0.00011905 Eh      0.07 kcal/mol
Rotational entropy                ...      0.00799636 Eh      5.02 kcal/mol
Translational entropy             ...      0.01725935 Eh     10.83 kcal/mol
-----------------------------------------------------------------------
Final entropy term                ...      0.02537477 Eh     15.92 kcal/mol


CAUTION: The rotational entropy is not quite correctly treated here
         because it includes a symmetry number that is not yet correctly
         implemented in ORCA!
For a nonlinear molecule the correct rotational entropy is:
    S(rot) = R*(ln(qrot/sn)+1.5)
    R    = 8.31441 J/mol/K = 1.987191683e-3 kcal/mol/K
    qrot = 3189.8009829
    sn is the rotational symmetry number. We have assumed 3 here
       if it is different for your molecule then you should correct
       the printed rotational entropy by manually evaluating the equation
       as given above

For convenience we print out the resulting values for sn=1 - 12:
 sn= 1  qrot/sn=    3189.8010 T*S(rot)=     5.67 kcal/mol T*S(tot)=    16.57 kcal/mol
 sn= 2  qrot/sn=    1594.9005 T*S(rot)=     5.26 kcal/mol T*S(tot)=    16.16 kcal/mol
 sn= 3  qrot/sn=    1063.2670 T*S(rot)=     5.02 kcal/mol T*S(tot)=    15.92 kcal/mol
 sn= 4  qrot/sn=     797.4502 T*S(rot)=     4.85 kcal/mol T*S(tot)=    15.75 kcal/mol
 sn= 5  qrot/sn=     637.9602 T*S(rot)=     4.72 kcal/mol T*S(tot)=    15.62 kcal/mol
 sn= 6  qrot/sn=     531.6335 T*S(rot)=     4.61 kcal/mol T*S(tot)=    15.51 kcal/mol
 sn= 7  qrot/sn=     455.6859 T*S(rot)=     4.52 kcal/mol T*S(tot)=    15.42 kcal/mol
 sn= 8  qrot/sn=     398.7251 T*S(rot)=     4.44 kcal/mol T*S(tot)=    15.34 kcal/mol
 sn= 9  qrot/sn=     354.4223 T*S(rot)=     4.37 kcal/mol T*S(tot)=    15.27 kcal/mol
 sn=10  qrot/sn=     318.9801 T*S(rot)=     4.30 kcal/mol T*S(tot)=    15.21 kcal/mol
 sn=11  qrot/sn=     289.9819 T*S(rot)=     4.25 kcal/mol T*S(tot)=    15.15 kcal/mol
 sn=12  qrot/sn=     265.8167 T*S(rot)=     4.20 kcal/mol T*S(tot)=    15.10 kcal/mol


-------------------
GIBBS FREE ENTHALPY
-------------------

The Gibbs free enthalpy is G = H - T*S

Total enthalpy                    ...   -115.66669718 Eh 
Total entropy correction          ...     -0.02537477 Eh    -15.92 kcal/mol
-----------------------------------------------------------------------
Final Gibbs free enthalpy         ...   -115.69207195 Eh

For completeness - the Gibbs free enthalpy minus the electronic energy
G-E(el)                           ...      0.02860394 Eh     17.95 kcal/mol


Timings for individual modules:

Sum of individual times         ...       66.881 sec (=   1.115 min)
GTO integral calculation        ...        2.135 sec (=   0.036 min)   3.2 %
SCF iterations                  ...       26.435 sec (=   0.441 min)  39.5 %
SCF Gradient evaluation         ...        7.019 sec (=   0.117 min)  10.5 %
Geometry relaxation             ...        0.185 sec (=   0.003 min)   0.3 %
Analytical frequency calculation...       31.107 sec (=   0.518 min)  46.5 %
                             ****ORCA TERMINATED NORMALLY****
TOTAL RUN TIME: 0 days 0 hours 1 minutes 7 seconds 143 msec
